<?xml version="1.0"?>
<VTKFile type="UnstructuredGrid" version="0.1" byte_order="LittleEndian" header_type="UInt32" compressor="vtkZLibDataCompressor">
  <UnstructuredGrid>
    <Piece NumberOfPoints="792" NumberOfCells="4828">
      <PointData>
        <DataArray type="UInt32" Name="geol_type" format="ascii" RangeMin="0" RangeMax="0">0 
0 0 0 0 0 0 0 0 
0 0 0 0 0 0 0 0 
0 0 0 0 0 0 0 0 
0 0 0 0 0 0 0 0 
0 0 0 0 0 0 0 0 
0 0 0 0 0 0 0 0 
0 0 0 0 0 0 0 0 
0 0 0 0 0 0 0 0 
0 0 0 0 0 0 0 0 
0 0 0 0 0 0 0 0 
0 0 0 0 0 0 0 0 
0 0 0 0 0 0 0 0 
0 0 0 0 0 0 0 0 
0 0 0 0 0 0 0 0 
0 0 0 0 0 0 0 0 
0 0 0 0 0 0 0 0 
0 0 0 0 0 0 0 0 
0 0 0 0 0 0 0 0 
0 0 0 0 0 0 0 0 
0 0 0 0 0 0 0 0 
0 0 0 0 0 0 0 0 
0 0 0 0 0 0 0 0 
0 0 0 0 0 0 0 0 
0 0 0 0 0 0 0 0 
0 0 0 0 0 0 0 0 
0 0 0 0 0 0 0 0 
0 0 0 0 0 0 0 0 
0 0 0 0 0 0 0 0 
0 0 0 0 0 0 0 0 
0 0 0 0 0 0 0 0 
0 0 0 0 0 0 0 0 
0 0 0 0 0 0 0 0 
0 0 0 0 0 0 0 0 
0 0 0 0 0 0 0 0 
0 0 0 0 0 0 0 0 
0 0 0 0 0 0 0 0 
0 0 0 0 0 0 0 0 
0 0 0 0 0 0 0 0 
0 0 0 0 0 0 0 0 
0 0 0 0 0 0 0 0 
0 0 0 0 0 0 0 0 
0 0 0 0 0 0 0 0 
0 0 0 0 0 0 0 0 
0 0 0 0 0 0 0 0 
0 0 0 0 0 0 0 0 
0 0 0 0 0 0 0 0 
0 0 0 0 0 0 0 0 
0 0 0 0 0 0 0 0 
0 0 0 0 0 0 0 0 
0 0 0 0 0 0 0 0 
0 0 0 0 0 0 0 0 
0 0 0 0 0 0 0 0 
0 0 0 0 0 0 0 0 
0 0 0 0 0 0 0 0 
0 0 0 0 0 0 0 0 
0 0 0 0 0 0 0 0 
0 0 0 0 0 0 0 0 
0 0 0 0 0 0 0 0 
0 0 0 0 0 0 0 0 
0 0 0 0 0 0 0 0 
0 0 0 0 0 0 0 0 
0 0 0 0 0 0 0 0 
0 0 0 0 0 0 0 0 
0 0 0 0 0 0 0 0 
0 0 0 0 0 0 0 0 
0 0 0 0 0 0 0 0 
0 0 0 0 0 0 0 0 
0 0 0 0 0 0 0 0 
0 0 0 0 0 0 0 0 
0 0 0 0 0 0 0 0 
0 0 0 0 0 0 0 0 
0 0 0 0 0 0 0 0 
0 0 0 0 0 0 0 0 
0 0 0 0 0 0 0 0 
0 0 0 0 0 0 0 0 
0 0 0 0 0 0 0 0 
0 0 0 0 0 0 0 0 
0 0 0 0 0 0 0 0 
0 0 0 0 0 0 0 0 
0 0 0 0 0 0 0 0 
0 0 0 0 0 0 0 0 
0 0 0 0 0 0 0 0 
0 0 0 0 0 0 0 0 
0 0 0 0 0 0 0 0 
0 0 0 0 0 0 0 0 
0 0 0 0 0 0 0 0 
0 0 0 0 0 0 0 0 
0 0 0 0 0 0 0 0 
0 0 0 0 0 0 0 0 
0 0 0 0 0 0 0 0 
0 0 0 0 0 0 0 0 
0 0 0 0 0 0 0 0 
0 0 0 0 0 0 0 0 
0 0 0 0 0 0 0 0 
0 0 0 0 0 0 0 0 
0 0 0 0 0 0 0 0 
0 0 0 0 0 0 0 0 
0 0 0 0 0 0 0 0 
0 0 0 0 0 0 0 </DataArray>
      </PointData>
      <CellData>
        <DataArray type="UInt32" Name="region" format="ascii" RangeMin="1" RangeMax="2">1 
2 1 3 1 4 1 1 2 
5 5 4 1 1 6 1 2 
5 1 2 2 5 3 2 2 
5 5 1 3 5 5 2 5 
5 7 2 3 4 5 8 8 
2 8 5 5 8 2 5 7 
7 5 7 5 5 7 8 2 
5 2 2 8 8 8 8 2 
5 8 1 5 5 5 2 3 
2 7 2 2 2 1 5 7 
8 5 8 3 2 1 1 2 
3 2 3 6 6 7 6 2 
6 2 2 2 2 2 1 3 
4 8 4 5 7 7 4 4 
3 1 1 2 5 3 3 5 
1 1 5 5 1 1 4 1 
1 4 1 4 1 4 1 8 
4 1 2 1 5 2 1 2 
1 5 2 1 2 5 1 2 
5 2 1 1 2 5 1 2 
5 1 2 1 1 2 1 2 
1 1 2 1 1 1 2 3 
1 2 1 5 1 2 1 2 
1 2 8 2 8 2 1 2 
2 1 6 3 1 1 6 1 
1 2 1 2 2 1 2 1 
1 1 1 1 8 8 1 6 
1 6 1 2 3 5 1 2 
1 1 2 5 5 1 5 1 
2 2 5 5 2 1 5 1 
2 1 1 2 1 1 2 6 
6 1 2 5 2 2 5 6 
5 4 2 2 5 5 5 2 
6 2 2 5 2 5 3 5 
5 5 7 7 6 3 2 3 
2 5 3 3 7 5 2 2 
3 5 3 3 5 2 2 7 
5 5 2 7 5 5 2 2 
3 2 5 5 3 2 3 2 
3 5 2 5 3 5 5 3 
2 3 3 3 2 2 5 3 
5 2 3 5 2 5 3 3 
2 3 5 3 2 3 2 2 
5 3 3 2 3 5 3 5 
3 2 2 3 2 3 3 2 
5 3 2 5 2 5 4 5 
7 2 7 2 5 5 7 2 
7 5 5 7 7 2 2 5 
7 2 5 7 2 5 7 2 
7 2 2 7 5 7 2 5 
7 5 7 5 7 2 2 7 
5 5 7 5 7 5 2 2 
5 2 5 7 6 5 5 2 
2 2 2 6 2 5 4 2 
5 2 5 5 2 8 8 5 
2 8 2 2 5 5 5 2 
2 8 2 2 2 8 5 2 
6 2 2 5 5 5 8 2 
2 8 5 5 2 8 5 8 
5 8 8 2 8 2 5 8 
2 5 2 8 2 2 8 2 
8 5 2 7 5 7 2 2 
7 8 8 2 8 5 2 5 
2 8 8 5 8 2 8 2 
8 5 8 5 8 2 8 5 
2 2 2 5 8 8 8 2 
2 8 2 5 5 7 2 8 
7 5 2 5 2 5 5 2 
2 7 5 7 2 7 5 2 
7 2 7 2 2 5 2 7 
2 2 7 5 5 5 7 2 
7 2 7 5 7 2 7 7 
2 5 7 5 2 7 5 2 
2 5 5 2 2 8 5 8 
5 8 2 8 2 8 5 8 
2 8 1 2 8 8 2 2 
2 5 2 7 8 2 2 2 
8 8 8 2 8 2 2 8 
2 2 2 8 6 2 7 8 
2 8 2 2 2 8 6 8 
2 2 8 2 8 2 2 2 
7 2 7 2 7 8 2 8 
8 2 8 2 7 8 7 8 
7 2 2 7 8 8 6 5 
5 5 5 1 5 1 8 8 
5 5 8 1 8 8 1 1 
4 8 4 8 8 5 5 5 
5 5 5 8 5 5 7 8 
8 5 3 2 3 3 5 7 
5 5 5 5 5 5 5 3 
3 7 2 5 5 3 5 3 
4 5 5 5 3 5 5 3 
2 5 5 1 4 3 3 3 
4 3 2 3 3 3 5 3 
2 2 7 7 2 2 3 6 
3 2 2 3 2 3 5 2 
5 2 2 3 2 2 3 3 
2 2 6 6 2 2 3 3 
3 3 3 3 1 2 3 3 
2 3 6 1 7 4 7 3 
7 5 7 5 5 7 5 7 
8 7 7 5 5 7 4 7 
5 7 5 7 5 7 5 5 
5 7 5 8 8 5 2 2 
7 7 6 3 3 7 7 2 
6 2 2 7 2 2 2 2 
7 7 7 7 7 8 8 6 
6 6 1 6 2 2 6 2 
2 2 2 3 6 2 6 2 
6 6 1 2 3 3 3 6 
3 3 3 6 2 7 7 2 
2 2 6 2 6 2 2 2 
2 2 6 7 6 6 6 6 
6 6 2 7 6 7 3 6 
2 6 6 8 6 8 2 6 
2 2 2 6 8 8 8 6 
6 2 6 6 6 8 6 2 
6 1 8 2 1 1 8 7 
6 3 4 3 4 3 1 1 
4 5 1 4 3 5 5 5 
5 1 1 5 4 4 1 4 
5 5 5 4 8 8 8 4 
8 4 4 4 8 8 8 4 
4 5 8 8 8 7 4 4 
5 4 4 5 5 7 7 7 
4 7 4 4 4 4 3 7 
4 4 7 7 4 7 7 4 
7 8 8 4 1 4 1 1 
1 1 1 3 5 4 5 4 
1 4 8 1 1 5 5 1 
8 1 5 1 1 2 1 1 
3 2 1 3 3 1 3 2 
2 1 2 1 1 1 1 1 
1 1 6 8 6 1 2 3 
3 2 5 1 2 2 1 2 
2 3 5 5 2 5 1 2 
5 2 5 5 1 5 2 6 
2 3 2 5 5 2 4 6 
3 5 2 2 5 2 5 5 
5 5 5 3 5 3 3 2 
3 2 3 3 5 3 5 5 
2 3 5 3 2 3 2 5 
3 3 3 5 3 2 5 3 
3 2 3 2 5 5 3 5 
2 3 2 5 2 2 1 2 
2 2 2 5 5 6 2 5 
3 2 3 2 3 3 3 5 
2 3 3 5 5 5 2 5 
7 7 5 2 7 7 5 5 
5 4 7 6 5 2 6 5 
8 2 8 2 2 2 8 5 
2 5 8 2 5 8 2 2 
2 8 5 2 2 5 5 5 
5 2 7 2 2 7 7 2 
5 5 5 7 7 2 7 2 
7 6 5 5 2 5 2 5 
2 5 5 2 8 2 2 5 
1 1 6 5 8 6 2 5 
5 4 5 2 1 8 6 1 
6 8 6 8 8 5 2 8 
5 8 5 8 4 8 4 4 
4 4 8 8 4 8 4 7 
8 4 8 8 8 3 3 3 
3 3 3 3 3 3 3 5 
3 3 3 3 3 4 3 5 
3 3 4 3 2 3 2 2 
6 3 6 2 3 3 3 6 
3 6 3 3 6 1 3 6 
3 3 3 4 4 5 7 5 
3 5 7 7 4 4 7 7 
7 5 5 5 5 7 8 7 
4 7 5 5 7 5 5 5 
7 7 3 7 2 2 7 7 
2 7 2 2 7 6 7 2 
6 7 2 7 7 7 7 6 
7 7 7 6 6 7 6 7 
6 6 6 6 6 3 6 6 
2 2 6 3 6 3 6 6 
6 6 2 6 6 6 6 6 
8 6 2 6 6 6 6 7 
7 7 7 4 1 4 3 4 
4 4 4 4 4 1 1 1 
1 4 5 8 8 8 8 4 
4 4 4 4 4 5 4 5 
4 4 4 4 3 7 7 4 
4 4 8 4 7 5 7 5 
3 7 1 3 1 1 2 5 
8 8 8 5 8 7 8 2 
5 5 5 5 5 5 5 5 
5 1 8 5 5 5 5 5 
5 5 5 5 1 1 3 1 
5 1 1 5 1 5 1 1 
1 5 1 1 5 1 5 1 
1 1 5 5 1 1 1 1 
5 1 1 1 5 1 1 2 
1 2 2 5 1 7 7 2 
7 5 7 5 2 1 5 5 
1 1 5 5 1 2 1 2 
2 1 2 1 1 2 5 1 
2 5 1 2 2 2 5 5 
1 5 5 1 2 2 5 2 
2 7 5 7 5 7 7 8 
7 2 2 5 5 5 5 8 
8 5 5 1 8 8 1 1 
8 8 8 8 7 8 8 7 
5 5 5 5 5 8 8 5 
5 5 5 3 1 1 1 3 
4 3 3 3 4 4 3 4 
4 7 7 5 5 7 5 8 
8 7 6 7 1 6 6 6 
6 2 2 6 6 2 4 7 
7 4 4 4 4 4 3 4 
3 3 4 4 3 4 4 3 
8 3 8 1 2 2 1 8 
8 8 4 5 5 2 2 6 
5 4 5 7 2 2 2 3 
6 7 3 7 5 5 1 5 
5 4 5 4 4 8 8 1 
6 1 2 2 2 2 6 6 
5 6 6 2 2 2 2 3 
2 2 7 7 5 5 4 5 
6 6 5 5 5 2 2 6 
2 8 2 2 6 2 2 5 
8 8 7 2 2 7 2 2 
1 5 5 4 4 4 4 4 
7 7 1 4 5 2 5 5 
5 2 5 1 2 2 5 5 
7 2 2 2 2 6 5 5 
3 4 4 4 8 7 4 1 
5 5 3 3 1 5 5 8 
8 8 8 5 5 5 5 8 
5 5 5 5 5 1 1 1 
5 3 5 3 3 5 5 7 
7 7 2 7 2 2 7 3 
3 8 8 8 5 8 1 1 
1 1 5 5 5 5 5 1 
5 3 5 5 5 8 8 8 
8 8 2 8 8 5 3 7 
3 7 7 7 2 2 2 2 
7 7 7 3 7 7 7 8 
8 7 7 2 5 5 1 5 
1 5 2 5 7 5 5 8 
1 5 5 7 5 8 2 7 
2 8 1 5 5 8 2 5 
5 1 5 7 2 2 3 8 
5 2 5 2 
1 1 2 2 2 1 2 1 
1 1 1 2 2 1 2 2 
1 2 2 1 2 1 2 1 
1 1 2 1 1 2 1 1 
2 2 1 1 2 1 1 2 
1 1 2 1 2 2 2 2 
2 2 2 1 1 1 1 1 
1 1 1 1 2 2 2 2 
2 1 1 1 1 1 1 1 
2 2 2 2 2 2 2 2 
2 2 2 2 2 2 2 2 
2 2 2 1 1 1 1 1 
1 1 1 2 1 1 1 1 
1 1 1 1 1 1 1 1 
1 1 1 1 1 1 1 1 
1 1 2 1 1 2 2 1 
1 2 2 1 2 1 2 2 
1 2 1 1 2 1 2 2 
2 2 1 1 2 2 1 1 
1 2 2 2 2 2 2 2 
2 2 2 2 2 2 2 2 
2 2 2 2 2 2 2 2 
2 2 2 2 2 2 2 2 
2 2 2 1 1 1 1 2 
2 1 1 2 1 2 1 1 
2 2 1 2 2 1 2 1 
2 1 1 1 2 1 1 2 
1 2 1 2 2 1 1 1 
2 2 2 1 2 1 2 1 
2 1 2 1 2 1 1 2 
2 1 1 1 2 2 2 2 
1 2 2 1 1 1 1 1 
2 1 2 2 2 2 2 1 
1 1 1 2 2 1 2 1 
1 2 2 1 1 1 2 1 
2 1 2 2 2 2 2 2 
2 1 1 2 2 1 2 2 
1 1 2 1 1 2 2 2 
2 1 2 2 1 1 2 1 
2 1 2 2 1 2 2 2 
1 2 1 1 2 2 2 2 
1 2 1 2 2 1 2 1 
1 2 1 1 2 1 1 2 
2 2 1 1 2 1 1 2 
1 2 1 2 2 1 2 1 
2 2 2 2 1 1 2 2 
1 1 1 2 2 2 1 1 
1 2 1 2 2 1 1 2 
1 2 1 1 2 1 2 2 
2 2 2 2 1 1 2 1 
2 2 1 1 2 1 1 1 
2 2 2 2 2 1 1 1 
1 2 2 1 2 1 2 2 
2 1 2 2 2 2 1 1 
1 2 1 2 2 2 1 1 
1 2 1 1 2 2 1 2 
1 1 2 2 2 1 2 1 
1 2 1 1 2 2 2 1 
1 2 2 1 2 1 2 1 
1 2 2 1 1 2 1 2 
2 2 2 1 1 2 1 2 
2 2 1 1 2 2 1 1 
2 1 1 2 1 1 2 2 
2 1 2 1 2 2 2 2 
2 1 2 2 2 1 1 1 
2 2 1 2 2 2 1 1 
2 1 2 2 1 1 1 2 
2 1 1 2 2 2 1 1 
2 2 2 2 2 2 2 2 
1 2 2 2 2 2 2 2 
2 2 2 2 2 2 2 2 
2 2 2 2 2 2 2 2 
2 2 2 2 2 2 2 2 
2 2 2 2 2 2 2 2 
2 2 2 2 2 2 2 2 
2 2 2 2 2 2 2 2 
2 2 1 1 1 1 1 1 
1 1 1 1 1 1 1 1 
1 1 1 1 1 1 1 1 
1 1 1 1 1 1 1 1 
1 1 1 1 1 1 1 1 
1 1 2 1 1 1 1 1 
1 1 1 1 1 1 1 2 
1 1 1 1 1 1 1 1 
1 1 2 1 1 1 1 1 
1 1 1 2 1 1 1 1 
1 1 1 1 1 1 2 1 
1 1 1 2 2 2 2 2 
2 2 2 2 2 2 2 2 
2 1 2 1 2 2 2 2 
2 2 2 2 2 2 2 2 
2 2 2 2 2 2 2 2 
2 2 2 2 2 2 2 2 
2 2 2 2 1 1 1 1 
1 1 1 1 1 1 1 1 
1 1 1 1 1 1 1 1 
1 1 1 1 1 1 1 1 
1 1 1 1 2 2 2 2 
2 2 2 2 2 2 2 2 
2 2 2 2 2 2 2 2 
2 2 2 2 2 2 2 2 
2 2 2 2 2 2 2 2 
2 2 2 2 2 2 2 2 
2 2 2 2 2 2 2 2 
2 2 2 2 2 2 2 2 
2 2 2 2 2 2 2 2 
2 2 2 2 2 2 2 2 
2 2 2 2 2 2 2 2 
2 2 2 2 2 2 2 2 
2 2 2 2 2 2 2 2 
2 2 2 2 2 2 2 2 
2 2 2 2 2 2 2 2 
2 2 2 2 2 2 2 2 
2 2 2 1 1 1 1 1 
1 1 1 1 1 1 1 1 
1 1 1 1 1 1 1 1 
1 1 1 1 1 1 1 1 
1 1 1 1 1 1 1 1 
1 1 1 1 1 1 1 1 
1 1 1 1 1 1 1 1 
1 1 1 1 1 1 1 1 
1 1 1 1 1 1 1 1 
1 1 1 1 1 1 1 1 
1 1 1 1 1 1 1 1 
1 1 1 1 1 1 1 1 
1 1 1 1 1 1 1 1 
1 1 1 1 1 1 1 1 
1 1 2 2 2 1 2 2 
2 2 2 2 2 2 2 2 
2 2 2 2 2 2 2 2 
2 2 2 2 2 2 2 2 
2 1 2 1 2 2 2 2 
1 2 2 2 1 1 2 1 
2 2 1 2 1 2 1 2 
1 1 1 2 1 2 2 2 
1 2 1 1 2 2 1 2 
1 2 1 2 1 2 2 1 
1 2 1 1 1 2 1 1 
1 2 2 1 1 1 1 2 
1 2 2 1 2 2 2 1 
2 1 2 2 1 1 1 2 
2 1 2 2 1 1 1 2 
2 1 2 2 2 1 1 2 
2 1 2 2 1 1 2 1 
1 1 1 1 2 1 1 1 
2 1 1 2 2 1 1 1 
1 1 2 1 2 2 1 2 
2 2 2 2 2 2 2 1 
2 1 2 1 2 1 2 2 
2 1 2 2 1 1 1 1 
2 1 2 2 1 2 1 1 
1 1 2 2 1 1 1 2 
1 2 1 1 2 1 2 1 
2 1 2 1 1 2 2 2 
2 2 2 2 2 2 2 1 
1 2 2 1 2 2 2 2 
1 1 1 1 1 2 2 2 
2 2 2 2 2 2 2 2 
2 1 1 2 1 1 1 1 
1 1 1 1 1 1 1 1 
1 1 1 1 1 1 1 1 
1 1 1 1 1 1 1 1 
1 1 1 1 1 1 1 1 
1 1 1 1 1 1 1 1 
1 1 1 1 1 1 1 1 
1 1 2 2 2 2 2 2 
2 2 2 2 2 2 2 2 
2 2 2 2 2 2 2 2 
2 2 2 2 2 1 1 1 
1 1 1 1 1 1 1 1 
1 1 1 1 1 1 1 1 
1 1 1 1 1 1 1 1 
1 1 1 1 1 1 1 1 
1 1 1 1 1 1 1 1 
1 1 2 2 2 2 2 2 
2 2 2 2 2 2 2 2 
2 2 2 2 2 2 2 2 
2 2 2 2 2 2 2 2 
2 2 2 2 2 2 2 2 
2 2 2 2 2 2 2 2 
2 2 2 2 2 2 2 2 
2 2 2 2 2 2 2 2 
2 2 2 2 2 2 2 2 
2 2 2 2 2 2 2 2 
2 2 2 2 2 2 2 2 
2 2 2 2 2 2 2 2 
1 1 1 1 1 1 1 1 
1 1 1 1 1 1 1 1 
1 1 1 1 1 1 1 1 
1 1 1 1 1 1 1 1 
1 1 1 1 1 1 1 1 
1 1 1 1 1 1 1 1 
1 1 1 1 1 1 1 1 
1 1 1 1 2 1 1 2 
2 2 2 2 2 2 2 2 
1 2 1 1 2 2 2 1 
1 1 1 1 1 1 1 1 
1 1 1 1 1 1 1 1 
1 1 1 1 1 1 1 1 
1 1 1 1 1 1 1 1 
1 1 1 1 1 1 1 1 
1 1 1 1 1 1 1 1 
1 1 1 1 1 1 1 1 
1 1 1 1 1 1 1 1 
1 1 1 2 1 2 2 2 
2 2 1 1 2 2 2 2 
2 1 1 1 2 2 2 1 
2 2 2 2 1 1 1 1 
1 1 1 1 1 1 2 2 
2 2 2 2 2 2 2 2 
2 2 1 2 1 2 1 1 
2 2 2 2 1 1 1 1 
1 2 2 2 1 1 2 1 
2 2 1 1 1 1 2 2 
2 2 2 2 2 2 2 2 
2 1 1 1 1 1 1 1 
1 1 1 1 1 1 1 1 
1 1 1 1 1 1 1 1 
1 1 1 1 1 1 1 1 
1 1 1 1 1 1 1 1 
1 1 1 1 1 1 1 1 
1 1 1 1 1 1 1 1 
1 1 1 1 1 1 1 1 
1 1 1 1 1 1 1 1 
1 1 1 1 1 1 1 1 
1 1 1 1 1 1 1 1 
1 1 1 1 2 2 2 2 
2 2 2 2 2 2 2 2 
2 2 2 2 2 2 2 2 
2 2 2 1 1 1 1 1 
1 1 1 1 1 1 1 1 
1 1 1 1 1 1 1 1 
1 2 1 1 1 1 1 2 
2 2 2 1 2 2 1 1 
1 1 1 2 2 2 2 2 
2 2 2 2 2 1 1 1 
1 1 1 1 1 1 1 1 
1 1 1 1 1 1 1 1 
2 2 2 2 2 2 2 2 
2 2 2 1 1 1 1 1 
1 1 1 1 1 1 1 1 
1 1 1 2 2 2 2 2 
2 2 2 2 2 2 2 2 
2 2 2 2 2 2 2 2 
2 2 2 2 2 2 2 2 
2 2 2 2 2 2 2 2 
2 2 2 2 2 2 2 2 
2 2 2 1 1 1 1 1 
1 1 2 2 2 2 2 2 
2 2 2 2 2 2 2 2 
2 2 2 2 2 2 2 2 
2 2 2 2 2 1 1 1 
1 1 1 1 1 2 2 2 
2 2 2 2 2 2 2 2 
2 2 2 2 2 2 2 2 
2 2 1 1 1 1 1 1 
1 1 1 1 1 1 1 1 
1 1 1 1 1 1 1 1 
2 2 2 2 2 2 2 2 
2 2 2 2 2 2 2 2 
1 1 1 1 1 1 1 1 
1 1 1 1 1 1 2 2 
2 2 2 2 2 2 2 2 
2 2 2 2 2 2 2 2 
2 2 2 2 2 2 1 1 
1 1 1 1 1 1 1 1 
1 1 2 2 2 2 2 2 
1 1 1 1 1 1 1 1 
1 1 2 2 2 2 2 2 
2 2 2 2 2 2 2 2 
2 2 2 2 2 2 2 2 
1 1 1 1 1 1 1 1 
1 1 1 1 1 1 1 1 
1 1 1 1 1 1 1 1 
1 1 1 1 1 1 1 1 
1 1 1 1 1 1 1 1 
1 1 1 1 1 1 1 1 
1 1 1 1 1 1 1 1 
1 1 1 1 1 1 1 1 
1 1 1 1 1 1 1 1 
1 1 1 1 2 2 2 2 
2 2 2 2 2 2 2 2 
1 1 1 1 1 1 1 1 
1 1 1 1 2 2 2 2 
2 2 2 2 2 2 2 2 
2 2 2 1 1 1 1 1 
1 1 1 1 1 1 1 2 
2 2 2 2 2 2 2 2 
2 2 2 2 2 2 1 1 
1 1 1 1 1 1 1 1 
1 1 1 1 1 1 1 1 
1 1 1 1 1 1 1 2 
2 2 2 2 2 2 2 2 
2 2 2 2 2 2 2 2 
2 2 2 2 2 2 2 2 
2 2 2 2 2 2 2 2 
2 2 2 2 2 2 2 2 
2 2 2 2 2 2 2 2 
2 2 2 2 2 2 2 2 
2 1 1 1 1 1 1 1 
1 1 1 1 1 1 1 1 
1 1 1 1 1 1 1 1 
1 1 1 1 1 1 1 1 
1 1 1 2 2 2 2 2 
2 2 2 2 2 2 2 2 
2 2 2 2 2 2 2 2 
2 2 2 2 2 2 1 1 
1 1 1 1 1 1 1 1 
1 1 1 1 1 1 1 1 
1 1 1 1 1 1 1 1 
1 1 1 1 1 1 1 1 
1 1 1 1 1 1 1 1 
1 1 1 1 1 1 1 1 
1 1 1 1 1 1 1 1 
1 1 1 1 1 1 1 1 
1 1 1 1 1 1 1 1 
1 1 1 1 1 1 1 1 
1 1 1 1 2 2 1 2 
2 2 1 1 1 2 2 1 
2 2 1 1 1 1 1 1 
1 1 1 1 1 1 1 1 
1 1 1 1 1 1 1 1 
1 1 1 1 1 1 1 1 
1 1 1 1 1 1 1 1 
1 1 1 1 1 1 1 2 
2 2 2 2 2 2 2 1 
1 1 1 1 1 1 1 1 
1 1 1 1 1 1 1 1 
1 1 1 1 1 1 1 1 
1 1 1 1 1 1 1 1 
1 1 1 1 1 1 1 1 
1 1 1 1 1 1 1 1 
1 1 1 1 1 1 1 2 
2 2 2 2 2 2 2 2 
1 1 1 1 1 1 1 1 
1 1 1 1 1 1 1 2 
2 2 2 2 2 2 2 2 
2 2 2 2 2 2 1 1 
1 1 1 1 1 1 1 1 
1 1 1 1 1 1 1 1 
2 2 2 2 2 2 2 1 
1 1 1 1 1 1 1 2 
1 2 2 1 1 1 1 1 
1 1 1 1 1 1 1 1 
1 1 2 2 1 1 1 1 
1 1 1 1 1 1 1 1 
1 1 1 1 1 1 1 1 
2 1 1 1 2 1 1 1 
1 1 1 1 2 2 2 2 
1 1 1 1 1 1 1 1 
1 1 1 1 1 1 1 1 
1 1 1 1 1 1 1 2 
2 2 2 1 1 2 1 1 
1 1 1 1 1 1 1 1 
1 1 1 1 2 1 1 1 
1 2 1 1 2 2 1 1 
1 1 1 2 2 1 1 2 
2 2 1 1 1 1 2 </DataArray>
        <DataArray type="UInt32" Name="unit" format="ascii" RangeMin="1" RangeMax="2">2 
2 1 1 1 1 2 2 2 
1 1 1 1 2 2 2 2 
1 2 2 2 1 1 2 2 
1 1 2 1 1 1 2 1 
1 1 2 2 1 1 2 2 
2 1 1 1 2 2 1 1 
1 1 2 1 1 1 1 2 
1 2 2 2 2 2 2 2 
1 1 1 1 1 1 2 2 
2 2 2 2 2 2 1 1 
1 1 1 2 2 2 2 2 
2 2 2 2 2 2 2 2 
2 2 2 2 2 2 2 1 
1 1 1 1 1 1 1 1 
1 1 2 2 1 1 1 1 
1 1 1 1 1 1 1 1 
1 1 1 1 1 1 1 1 
1 1 2 2 1 2 2 2 
1 1 2 2 2 1 2 2 
1 2 2 2 2 1 2 2 
1 2 2 1 2 2 2 2 
2 2 2 1 1 2 2 2 
2 2 1 1 2 2 2 2 
2 2 2 2 2 2 2 2 
2 2 2 2 2 2 2 2 
2 2 2 2 2 2 2 2 
2 2 2 2 2 2 2 2 
2 2 2 2 1 1 1 2 
1 2 2 1 1 1 1 2 
2 2 1 1 2 1 1 2 
2 1 1 2 2 1 2 2 
2 1 2 1 2 2 1 2 
1 1 2 2 1 1 1 2 
2 2 2 1 2 1 1 1 
1 1 2 2 2 2 2 2 
2 1 1 1 1 1 2 2 
2 1 2 1 1 2 2 1 
1 1 2 2 1 1 2 2 
2 2 1 1 1 2 2 2 
2 1 2 1 1 1 1 2 
2 2 2 1 2 2 1 1 
1 2 2 1 2 1 1 2 
2 2 1 1 2 2 2 2 
1 1 2 2 1 1 1 1 
2 2 2 2 2 2 2 2 
1 1 2 1 2 1 1 1 
1 2 2 2 1 1 1 2 
2 1 1 1 2 2 2 1 
1 2 1 2 2 1 1 2 
2 2 2 1 1 1 2 1 
1 1 1 1 2 2 2 1 
1 1 1 1 1 1 2 2 
1 2 1 2 2 1 1 2 
2 2 2 2 2 1 1 2 
1 2 1 1 2 1 1 1 
2 2 2 2 1 1 1 2 
2 1 2 2 2 2 1 2 
2 2 2 1 1 1 2 2 
2 2 1 1 2 2 1 1 
1 1 2 2 2 2 1 1 
2 1 2 2 2 2 2 2 
1 1 2 2 1 1 2 2 
1 1 2 2 1 1 2 1 
2 2 1 1 1 2 2 2 
2 1 1 1 1 2 2 1 
2 2 2 1 1 1 2 2 
2 2 2 1 1 2 2 2 
1 1 2 1 2 1 1 2 
2 2 1 1 2 2 1 2 
2 2 2 2 2 1 2 2 
2 2 2 1 1 1 1 2 
2 2 2 1 1 2 2 2 
2 1 1 1 2 2 1 2 
2 1 1 2 2 2 1 1 
1 1 2 2 2 2 1 1 
2 2 2 2 2 2 2 2 
2 1 2 2 2 2 2 2 
2 2 2 2 2 2 2 2 
2 2 2 2 2 2 2 2 
2 2 2 2 2 2 2 2 
2 2 2 2 2 2 2 2 
2 2 2 2 2 2 2 2 
2 2 2 2 2 2 2 2 
2 2 2 2 2 2 2 1 
1 1 1 1 1 1 1 1 
1 1 1 1 1 1 1 1 
1 1 1 1 1 1 1 1 
1 1 1 1 1 1 1 1 
1 1 1 2 1 1 1 1 
1 1 1 1 1 1 1 1 
1 1 2 1 1 1 1 1 
1 1 1 1 1 1 1 1 
2 1 1 1 1 1 1 1 
1 1 2 2 1 1 1 2 
2 2 2 2 2 2 2 2 
2 2 2 2 2 1 1 2 
1 2 2 2 2 2 2 2 
2 2 2 2 2 2 2 2 
2 2 2 2 2 2 2 2 
2 2 2 2 1 1 1 1 
1 1 1 1 1 1 1 1 
1 1 1 1 1 1 1 1 
1 1 1 1 1 1 1 1 
1 1 1 1 1 1 2 2 
2 2 2 2 2 2 2 2 
2 2 2 2 2 2 2 2 
2 2 2 2 2 2 2 2 
2 2 2 2 2 2 2 2 
2 2 2 2 2 2 2 2 
2 2 2 2 2 2 2 2 
2 2 2 2 2 2 2 2 
2 2 2 2 2 2 2 2 
2 2 2 2 2 2 2 2 
2 2 2 2 2 2 2 2 
2 2 2 2 2 2 2 2 
2 2 2 2 2 2 2 2 
2 2 2 2 2 2 2 2 
2 2 2 2 2 2 2 2 
2 1 1 1 1 1 1 1 
1 1 1 1 1 1 1 1 
1 1 1 1 1 1 1 1 
1 1 1 1 1 1 1 1 
1 1 1 1 1 1 1 1 
1 1 1 1 1 1 1 1 
1 1 1 1 1 1 1 1 
1 1 1 1 1 1 1 1 
1 1 1 1 1 1 1 1 
1 1 1 1 1 1 1 1 
1 1 1 1 1 1 1 1 
1 1 1 1 1 1 1 1 
1 1 1 2 2 2 2 2 
2 2 2 2 2 2 2 2 
2 2 2 2 2 2 2 2 
2 2 2 2 2 2 2 1 
2 2 1 2 2 2 2 2 
2 1 1 1 2 1 1 2 
1 2 1 1 1 1 2 2 
2 1 2 1 1 2 1 2 
1 1 2 2 1 2 1 1 
1 1 1 1 1 1 2 2 
2 2 1 1 1 1 1 1 
2 2 1 2 2 2 2 1 
1 2 2 1 2 2 1 1 
2 2 2 2 1 1 1 1 
2 2 2 1 2 2 1 2 
2 2 2 1 1 2 2 1 
1 2 2 2 2 1 1 1 
2 2 1 1 1 1 2 1 
1 1 1 2 1 1 1 1 
1 1 1 2 1 2 2 1 
2 2 2 2 2 2 2 1 
2 1 2 2 1 1 2 2 
2 2 1 2 2 1 1 1 
1 2 1 2 2 1 2 2 
1 1 1 1 2 2 1 2 
1 2 1 1 2 1 2 1 
2 1 1 2 2 2 2 1 
1 2 2 1 2 2 2 1 
1 1 1 2 2 2 2 2 
2 2 2 2 1 1 2 2 
1 1 1 1 1 1 1 1 
1 1 1 1 1 1 1 1 
1 1 1 1 1 1 1 1 
1 1 1 1 1 1 1 1 
1 1 1 1 1 1 1 1 
1 1 1 2 2 2 2 2 
2 2 2 2 2 2 2 2 
2 2 2 2 2 2 2 2 
2 1 1 1 1 1 1 1 
1 1 1 1 1 1 1 1 
1 1 1 1 1 1 1 1 
1 1 1 1 1 1 1 1 
1 1 2 2 2 2 2 2 
2 2 2 2 2 2 2 2 
2 2 2 2 2 2 2 2 
2 2 2 2 2 2 2 2 
2 2 2 2 2 2 2 2 
2 2 2 2 2 2 2 2 
2 2 2 2 2 2 2 2 
2 2 2 2 2 2 2 2 
2 2 2 1 1 1 1 1 
1 1 1 1 1 1 1 1 
1 1 1 1 1 1 1 1 
1 1 1 1 1 1 1 1 
1 1 1 1 1 1 1 1 
1 1 1 1 2 1 1 1 
1 2 2 2 2 2 2 1 
1 2 1 1 2 2 2 2 
1 1 1 1 1 1 1 1 
1 1 1 1 1 1 1 1 
1 1 1 1 1 1 1 1 
1 1 1 1 1 1 1 1 
1 1 1 1 1 1 1 1 
1 1 1 1 1 1 1 1 
1 1 1 1 1 1 1 2 
2 2 2 1 1 2 2 2 
1 1 1 1 2 2 1 1 
1 1 1 1 2 2 2 2 
2 2 2 2 2 2 1 2 
2 1 1 2 2 2 1 1 
1 1 1 2 2 2 1 2 
2 1 1 1 1 1 2 2 
2 2 2 1 1 1 1 1 
1 1 1 1 1 1 1 1 
1 1 1 1 1 1 1 1 
1 1 1 1 1 1 1 1 
1 1 1 1 1 1 1 1 
1 1 1 1 1 1 1 1 
1 1 1 1 1 1 1 1 
1 1 2 2 2 2 2 2 
2 2 2 2 2 2 1 1 
1 1 1 1 1 1 1 1 
1 1 1 1 1 1 1 1 
1 1 1 2 2 2 2 1 
2 2 1 1 1 2 2 2 
1 1 1 2 2 2 2 2 
2 2 2 2 1 1 1 1 
1 1 1 1 1 2 2 2 
2 2 2 2 2 2 2 2 
1 2 2 2 2 2 2 2 
2 2 2 2 1 1 1 1 
2 2 1 1 1 2 2 2 
2 2 2 2 2 2 2 1 
1 1 2 2 2 2 2 2 
2 1 1 1 1 1 1 1 
1 1 1 1 1 2 1 1 
1 2 1 1 2 2 1 1 
1 2 2 2 2 2 1 1 
1 1 1 1 1 1 1 1 
1 1 1 1 2 1 1 1 
1 1 1 1 1 1 1 1 
1 1 1 1 1 1 1 1 
1 1 1 1 1 1 1 1 
2 2 2 2 2 2 2 2 
1 1 1 1 1 1 1 1 
1 1 1 1 1 1 1 1 
1 1 1 1 1 1 1 2 
2 2 2 2 2 1 1 1 
1 1 1 2 2 2 2 2 
1 1 1 1 1 1 1 1 
1 2 2 2 1 1 1 1 
1 1 2 1 1 1 1 1 
1 1 1 1 1 2 2 1 
2 2 1 1 1 1 2 1 
1 1 1 1 2 2 2 1 
1 2 1 2 
1 1 2 2 2 1 2 1 
1 1 1 2 2 1 2 2 
1 2 2 1 2 1 2 1 
1 1 2 1 1 2 1 1 
2 2 1 1 2 1 1 2 
1 1 2 1 2 2 2 2 
2 2 2 1 1 1 1 1 
1 1 1 1 2 2 2 2 
2 1 1 1 1 1 1 1 
2 2 2 2 2 2 2 2 
2 2 2 2 2 2 2 2 
2 2 2 1 1 1 1 1 
1 1 1 2 1 1 1 1 
1 1 1 1 1 1 1 1 
1 1 1 1 1 1 1 1 
1 1 2 1 1 2 2 1 
1 2 2 1 2 1 2 2 
1 2 1 1 2 1 2 2 
2 2 1 1 2 2 1 1 
1 2 2 2 2 2 2 2 
2 2 2 2 2 2 2 2 
2 2 2 2 2 2 2 2 
2 2 2 2 2 2 2 2 
2 2 2 1 1 1 1 2 
2 1 1 2 1 2 1 1 
2 2 1 2 2 1 2 1 
2 1 1 1 2 1 1 2 
1 2 1 2 2 1 1 1 
2 2 2 1 2 1 2 1 
2 1 2 1 2 1 1 2 
2 1 1 1 2 2 2 2 
1 2 2 1 1 1 1 1 
2 1 2 2 2 2 2 1 
1 1 1 2 2 1 2 1 
1 2 2 1 1 1 2 1 
2 1 2 2 2 2 2 2 
2 1 1 2 2 1 2 2 
1 1 2 1 1 2 2 2 
2 1 2 2 1 1 2 1 
2 1 2 2 1 2 2 2 
1 2 1 1 2 2 2 2 
1 2 1 2 2 1 2 1 
1 2 1 1 2 1 1 2 
2 2 1 1 2 1 1 2 
1 2 1 2 2 1 2 1 
2 2 2 2 1 1 2 2 
1 1 1 2 2 2 1 1 
1 2 1 2 2 1 1 2 
1 2 1 1 2 1 2 2 
2 2 2 2 1 1 2 1 
2 2 1 1 2 1 1 1 
2 2 2 2 2 1 1 1 
1 2 2 1 2 1 2 2 
2 1 2 2 2 2 1 1 
1 2 1 2 2 2 1 1 
1 2 1 1 2 2 1 2 
1 1 2 2 2 1 2 1 
1 2 1 1 2 2 2 1 
1 2 2 1 2 1 2 1 
1 2 2 1 1 2 1 2 
2 2 2 1 1 2 1 2 
2 2 1 1 2 2 1 1 
2 1 1 2 1 1 2 2 
2 1 2 1 2 2 2 2 
2 1 2 2 2 1 1 1 
2 2 1 2 2 2 1 1 
2 1 2 2 1 1 1 2 
2 1 1 2 2 2 1 1 
2 2 2 2 2 2 2 2 
1 2 2 2 2 2 2 2 
2 2 2 2 2 2 2 2 
2 2 2 2 2 2 2 2 
2 2 2 2 2 2 2 2 
2 2 2 2 2 2 2 2 
2 2 2 2 2 2 2 2 
2 2 2 2 2 2 2 2 
2 2 1 1 1 1 1 1 
1 1 1 1 1 1 1 1 
1 1 1 1 1 1 1 1 
1 1 1 1 1 1 1 1 
1 1 1 1 1 1 1 1 
1 1 2 1 1 1 1 1 
1 1 1 1 1 1 1 2 
1 1 1 1 1 1 1 1 
1 1 2 1 1 1 1 1 
1 1 1 2 1 1 1 1 
1 1 1 1 1 1 2 1 
1 1 1 2 2 2 2 2 
2 2 2 2 2 2 2 2 
2 1 2 1 2 2 2 2 
2 2 2 2 2 2 2 2 
2 2 2 2 2 2 2 2 
2 2 2 2 2 2 2 2 
2 2 2 2 1 1 1 1 
1 1 1 1 1 1 1 1 
1 1 1 1 1 1 1 1 
1 1 1 1 1 1 1 1 
1 1 1 1 2 2 2 2 
2 2 2 2 2 2 2 2 
2 2 2 2 2 2 2 2 
2 2 2 2 2 2 2 2 
2 2 2 2 2 2 2 2 
2 2 2 2 2 2 2 2 
2 2 2 2 2 2 2 2 
2 2 2 2 2 2 2 2 
2 2 2 2 2 2 2 2 
2 2 2 2 2 2 2 2 
2 2 2 2 2 2 2 2 
2 2 2 2 2 2 2 2 
2 2 2 2 2 2 2 2 
2 2 2 2 2 2 2 2 
2 2 2 2 2 2 2 2 
2 2 2 2 2 2 2 2 
2 2 2 1 1 1 1 1 
1 1 1 1 1 1 1 1 
1 1 1 1 1 1 1 1 
1 1 1 1 1 1 1 1 
1 1 1 1 1 1 1 1 
1 1 1 1 1 1 1 1 
1 1 1 1 1 1 1 1 
1 1 1 1 1 1 1 1 
1 1 1 1 1 1 1 1 
1 1 1 1 1 1 1 1 
1 1 1 1 1 1 1 1 
1 1 1 1 1 1 1 1 
1 1 1 1 1 1 1 1 
1 1 1 1 1 1 1 1 
1 1 2 2 2 1 2 2 
2 2 2 2 2 2 2 2 
2 2 2 2 2 2 2 2 
2 2 2 2 2 2 2 2 
2 1 2 1 2 2 2 2 
1 2 2 2 1 1 2 1 
2 2 1 2 1 2 1 2 
1 1 1 2 1 2 2 2 
1 2 1 1 2 2 1 2 
1 2 1 2 1 2 2 1 
1 2 1 1 1 2 1 1 
1 2 2 1 1 1 1 2 
1 2 2 1 2 2 2 1 
2 1 2 2 1 1 1 2 
2 1 2 2 1 1 1 2 
2 1 2 2 2 1 1 2 
2 1 2 2 1 1 2 1 
1 1 1 1 2 1 1 1 
2 1 1 2 2 1 1 1 
1 1 2 1 2 2 1 2 
2 2 2 2 2 2 2 1 
2 1 2 1 2 1 2 2 
2 1 2 2 1 1 1 1 
2 1 2 2 1 2 1 1 
1 1 2 2 1 1 1 2 
1 2 1 1 2 1 2 1 
2 1 2 1 1 2 2 2 
2 2 2 2 2 2 2 1 
1 2 2 1 2 2 2 2 
1 1 1 1 1 2 2 2 
2 2 2 2 2 2 2 2 
2 1 1 2 1 1 1 1 
1 1 1 1 1 1 1 1 
1 1 1 1 1 1 1 1 
1 1 1 1 1 1 1 1 
1 1 1 1 1 1 1 1 
1 1 1 1 1 1 1 1 
1 1 1 1 1 1 1 1 
1 1 2 2 2 2 2 2 
2 2 2 2 2 2 2 2 
2 2 2 2 2 2 2 2 
2 2 2 2 2 1 1 1 
1 1 1 1 1 1 1 1 
1 1 1 1 1 1 1 1 
1 1 1 1 1 1 1 1 
1 1 1 1 1 1 1 1 
1 1 1 1 1 1 1 1 
1 1 2 2 2 2 2 2 
2 2 2 2 2 2 2 2 
2 2 2 2 2 2 2 2 
2 2 2 2 2 2 2 2 
2 2 2 2 2 2 2 2 
2 2 2 2 2 2 2 2 
2 2 2 2 2 2 2 2 
2 2 2 2 2 2 2 2 
2 2 2 2 2 2 2 2 
2 2 2 2 2 2 2 2 
2 2 2 2 2 2 2 2 
2 2 2 2 2 2 2 2 
1 1 1 1 1 1 1 1 
1 1 1 1 1 1 1 1 
1 1 1 1 1 1 1 1 
1 1 1 1 1 1 1 1 
1 1 1 1 1 1 1 1 
1 1 1 1 1 1 1 1 
1 1 1 1 1 1 1 1 
1 1 1 1 2 1 1 2 
2 2 2 2 2 2 2 2 
1 2 1 1 2 2 2 1 
1 1 1 1 1 1 1 1 
1 1 1 1 1 1 1 1 
1 1 1 1 1 1 1 1 
1 1 1 1 1 1 1 1 
1 1 1 1 1 1 1 1 
1 1 1 1 1 1 1 1 
1 1 1 1 1 1 1 1 
1 1 1 1 1 1 1 1 
1 1 1 2 1 2 2 2 
2 2 1 1 2 2 2 2 
2 1 1 1 2 2 2 1 
2 2 2 2 1 1 1 1 
1 1 1 1 1 1 2 2 
2 2 2 2 2 2 2 2 
2 2 1 2 1 2 1 1 
2 2 2 2 1 1 1 1 
1 2 2 2 1 1 2 1 
2 2 1 1 1 1 2 2 
2 2 2 2 2 2 2 2 
2 1 1 1 1 1 1 1 
1 1 1 1 1 1 1 1 
1 1 1 1 1 1 1 1 
1 1 1 1 1 1 1 1 
1 1 1 1 1 1 1 1 
1 1 1 1 1 1 1 1 
1 1 1 1 1 1 1 1 
1 1 1 1 1 1 1 1 
1 1 1 1 1 1 1 1 
1 1 1 1 1 1 1 1 
1 1 1 1 1 1 1 1 
1 1 1 1 2 2 2 2 
2 2 2 2 2 2 2 2 
2 2 2 2 2 2 2 2 
2 2 2 1 1 1 1 1 
1 1 1 1 1 1 1 1 
1 1 1 1 1 1 1 1 
1 2 1 1 1 1 1 2 
2 2 2 1 2 2 1 1 
1 1 1 2 2 2 2 2 
2 2 2 2 2 1 1 1 
1 1 1 1 1 1 1 1 
1 1 1 1 1 1 1 1 
2 2 2 2 2 2 2 2 
2 2 2 1 1 1 1 1 
1 1 1 1 1 1 1 1 
1 1 1 2 2 2 2 2 
2 2 2 2 2 2 2 2 
2 2 2 2 2 2 2 2 
2 2 2 2 2 2 2 2 
2 2 2 2 2 2 2 2 
2 2 2 2 2 2 2 2 
2 2 2 1 1 1 1 1 
1 1 2 2 2 2 2 2 
2 2 2 2 2 2 2 2 
2 2 2 2 2 2 2 2 
2 2 2 2 2 1 1 1 
1 1 1 1 1 2 2 2 
2 2 2 2 2 2 2 2 
2 2 2 2 2 2 2 2 
2 2 1 1 1 1 1 1 
1 1 1 1 1 1 1 1 
1 1 1 1 1 1 1 1 
2 2 2 2 2 2 2 2 
2 2 2 2 2 2 2 2 
1 1 1 1 1 1 1 1 
1 1 1 1 1 1 2 2 
2 2 2 2 2 2 2 2 
2 2 2 2 2 2 2 2 
2 2 2 2 2 2 1 1 
1 1 1 1 1 1 1 1 
1 1 2 2 2 2 2 2 
1 1 1 1 1 1 1 1 
1 1 2 2 2 2 2 2 
2 2 2 2 2 2 2 2 
2 2 2 2 2 2 2 2 
1 1 1 1 1 1 1 1 
1 1 1 1 1 1 1 1 
1 1 1 1 1 1 1 1 
1 1 1 1 1 1 1 1 
1 1 1 1 1 1 1 1 
1 1 1 1 1 1 1 1 
1 1 1 1 1 1 1 1 
1 1 1 1 1 1 1 1 
1 1 1 1 1 1 1 1 
1 1 1 1 2 2 2 2 
2 2 2 2 2 2 2 2 
1 1 1 1 1 1 1 1 
1 1 1 1 2 2 2 2 
2 2 2 2 2 2 2 2 
2 2 2 1 1 1 1 1 
1 1 1 1 1 1 1 2 
2 2 2 2 2 2 2 2 
2 2 2 2 2 2 1 1 
1 1 1 1 1 1 1 1 
1 1 1 1 1 1 1 1 
1 1 1 1 1 1 1 2 
2 2 2 2 2 2 2 2 
2 2 2 2 2 2 2 2 
2 2 2 2 2 2 2 2 
2 2 2 2 2 2 2 2 
2 2 2 2 2 2 2 2 
2 2 2 2 2 2 2 2 
2 2 2 2 2 2 2 2 
2 1 1 1 1 1 1 1 
1 1 1 1 1 1 1 1 
1 1 1 1 1 1 1 1 
1 1 1 1 1 1 1 1 
1 1 1 2 2 2 2 2 
2 2 2 2 2 2 2 2 
2 2 2 2 2 2 2 2 
2 2 2 2 2 2 1 1 
1 1 1 1 1 1 1 1 
1 1 1 1 1 1 1 1 
1 1 1 1 1 1 1 1 
1 1 1 1 1 1 1 1 
1 1 1 1 1 1 1 1 
1 1 1 1 1 1 1 1 
1 1 1 1 1 1 1 1 
1 1 1 1 1 1 1 1 
1 1 1 1 1 1 1 1 
1 1 1 1 1 1 1 1 
1 1 1 1 2 2 1 2 
2 2 1 1 1 2 2 1 
2 2 1 1 1 1 1 1 
1 1 1 1 1 1 1 1 
1 1 1 1 1 1 1 1 
1 1 1 1 1 1 1 1 
1 1 1 1 1 1 1 1 
1 1 1 1 1 1 1 2 
2 2 2 2 2 2 2 1 
1 1 1 1 1 1 1 1 
1 1 1 1 1 1 1 1 
1 1 1 1 1 1 1 1 
1 1 1 1 1 1 1 1 
1 1 1 1 1 1 1 1 
1 1 1 1 1 1 1 1 
1 1 1 1 1 1 1 2 
2 2 2 2 2 2 2 2 
1 1 1 1 1 1 1 1 
1 1 1 1 1 1 1 2 
2 2 2 2 2 2 2 2 
2 2 2 2 2 2 1 1 
1 1 1 1 1 1 1 1 
1 1 1 1 1 1 1 1 
2 2 2 2 2 2 2 1 
1 1 1 1 1 1 1 2 
1 2 2 1 1 1 1 1 
1 1 1 1 1 1 1 1 
1 1 2 2 1 1 1 1 
1 1 1 1 1 1 1 1 
1 1 1 1 1 1 1 1 
2 1 1 1 2 1 1 1 
1 1 1 1 2 2 2 2 
1 1 1 1 1 1 1 1 
1 1 1 1 1 1 1 1 
1 1 1 1 1 1 1 2 
2 2 2 1 1 2 1 1 
1 1 1 1 1 1 1 1 
1 1 1 1 2 1 1 1 
1 2 1 1 2 2 1 1 
1 1 1 2 2 1 1 2 
2 2 1 1 1 1 2 </DataArray>
      </CellData>
      <Points>
        <DataArray type="Float64" Name="Points" format="ascii" RangeMin="0.000000" RangeMax="9.000000" NumberOfComponents="3">9 1.125 0 9 3.676895141601562 3.502532958984375 
9 2.25 0 9 1.125 3.375 
9 4.5 3.375 9 6.75 3.502532958984375 
3.331053018569946 0 3.502532958984375 3.435313701629639 0 3.502532958984375 
3.435313701629639 0.08947739005088806 3.502532958984375 3.375 0 3.502532958984375 
5.839126586914062 0 3.502532958984375 5.752532958984375 0 3.502532958984375 
6.779411315917969 0.08947733044624329 3.502532958984375 6.779411315917969 0 3.502532958984375 
6.877532958984375 0 3.502532958984375 7.615435600280762 0 3.502532958984375 
0 1.252532958984375 3.502532958984375 1.387778780781446e-17 1.446161985397339 3.502532958984375 
5.752532958984375 9 3.502532958984375 3.435313701629639 9 3.502532958984375 
3.502532958984375 9 3.502532958984375 2.377532958984375 9 3.502532958984375 
2.25 9 3.502532958984375 2.113669395446777 9 3.502532958984375 
0 6.877532958984375 3.502532958984375 0 4.5 3.502532958984375 
1.387778780781446e-17 4.394378662109375 3.502532958984375 6.779411315917969 9 3.502532958984375 
7.129815578460693 9 3.502532958984375 7.615435600280762 9 3.502532958984375 
6.75 9 3.375 6.75 9 3.502532958984375 
6.779411315917969 8.69927978515625 3.502532958984375 0 9 3.502532958984375 
1.387778780781446e-17 7.903513431549072 3.502532958984375 0.09121626615524292 7.981796264648438 3.502532958984375 
2.25 9 3.375 0 7.875 3.502532958984375 
1.387778780781446e-17 7.18602991104126 3.502532958984375 0 7.875 0 
0 9 0 1.125 9 1.125 
9 9 9 2.599289417266846 8.69927978515625 3.502532958984375 
0.9272406101226807 0 3.502532958984375 2.599289417266846 0.8069609999656677 3.502532958984375 
2.599289417266846 0 3.502532958984375 3.375 0 3.375 
3.502532958984375 0 3.502532958984375 5.943387031555176 0.08947736024856567 3.502532958984375 
5.943387031555176 0 3.502532958984375 4.271337985992432 0 3.502532958984375 
7.511175155639648 0 3.502532958984375 7.875 0 3.375 
6.75 0 3.375 0 6.75 3.502532958984375 
2.599289417266846 2.95941162109375 3.502532958984375 0 9 1.125 
0.09121626615524292 7.264312744140625 3.502532958984375 1.387778780781446e-17 7.264312744140625 3.502532958984375 
1.125 9 0 3.375 0 0 
4.5 0 1.125 3.375 1.125 0 
3.375 0 1.125 0 1.125 0 
0 0 0 1.125 2.25 0 
2.25 9 2.25 5.625 9 0 
5.107362747192383 6.546829223632812 3.502532958984375 5.943387031555176 5.111862182617188 3.502532958984375 
9 7.875 6.75 7.875 9 6.75 
7.875 5.625 9 9 9 7.875 
7.875 9 7.875 3.435313701629639 4.394378662109375 3.502532958984375 
0 1.125 9 0 5.625 9 
3.375 9 9 4.5 9 9 
3.375 9 7.875 9 1.125 9 
9 0 7.875 9 0 0 
9 0 1.125 7.875 0 0 
9 6.300107955932617 3.502532958984375 9 5.625 3.375 
9 5.625 1.125 7.875 9 0 
9 6.75 0 8.451459884643555 0.08947727084159851 3.502532958984375 
9 0.08947724848985672 3.502532958984375 9 2.241928100585938 3.502532958984375 
9 2.25 3.375 9 6.75 5.625 
3.375 0 2.25 5.943387031555176 1.524444460868835 3.502532958984375 
2.25 0 3.502532958984375 2.599289417266846 0.08947741985321045 3.502532958984375 
2.495028734207153 0 3.502532958984375 2.25 0 3.375 
2.377532958984375 0 3.502532958984375 4.167077541351318 0 3.502532958984375 
4.5 0 3.502532958984375 4.627532958984375 0 3.502532958984375 
4.5 0 2.25 4.271337985992432 0.08947736024856567 3.502532958984375 
5.625 0 3.375 5.107362747192383 0.08947736024856567 3.502532958984375 
5.625 0 3.502532958984375 4.5 0 3.375 
5.00310230255127 0 3.502532958984375 6.675150871276855 0 3.502532958984375 
6.75 0 3.502532958984375 9 3.375 6.75 
1.763265013694763 0 3.502532958984375 1.763265013694763 0.08947744965553284 3.502532958984375 
1.659004330635071 0 3.502532958984375 1.252532958984375 0 3.502532958984375 
1.125 0 3.375 1.125 0 3.502532958984375 
1.387778780781446e-17 0.8069610595703125 3.502532958984375 5.943387031555176 8.69927978515625 3.502532958984375 
5.943387031555176 7.981796264648438 3.502532958984375 1.763265013694763 8.69927978515625 3.502532958984375 
1.387778780781446e-17 3.598612546920776 3.502532958984375 0 3.502532958984375 3.502532958984375 
0 3.375 3.502532958984375 0.09121626615524292 3.676895141601562 3.502532958984375 
0 3.375 4.5 0 5.625 5.625 
2.25 4.5 0 3.435313701629639 5.829345703125 3.502532958984375 
4.271337985992432 7.264312744140625 3.502532958984375 1.763265013694763 6.546829223632812 3.502532958984375 
7.875 9 3.375 7.875 9 2.25 
6.75 5.625 9 9 7.875 0 
9 9 2.25 3.375 9 0 
3.375 7.875 0 3.375 9 3.502532958984375 
9 9 6.75 7.875 9 9 
6.75 9 4.5 6.877532958984375 9 3.502532958984375 
2.25 0 5.625 3.375 0 4.5 
6.75 0 7.875 5.107362747192383 1.524444460868835 3.502532958984375 
7.875 0 7.875 7.875 0 6.75 
7.875 0 9 9 0 9 
0 0 9 2.599289417266846 1.524444580078125 3.502532958984375 
0 0 2.25 0 1.125 1.125 
1.125 1.125 0 4.5 0 0 
7.875 1.125 0 9 0 2.25 
0 2.25 9 0.09121626615524292 1.524444580078125 3.502532958984375 
0 6.75 9 0 4.627532958984375 3.502532958984375 
0 9 9 0.09121626615524292 2.241928100585938 3.502532958984375 
0 1.125 4.5 1.387778780781446e-17 1.524444580078125 3.502532958984375 
0 1.125 3.502532958984375 0 0 1.125 
0 1.125 3.375 1.763265013694763 1.524444580078125 3.502532958984375 
0.09121626615524292 2.95941162109375 3.502532958984375 1.125 6.75 0 
0 7.875 3.375 0 2.25 0 
0 3.375 0 7.875 3.375 0 
9 3.375 1.125 9 3.375 0 
7.875 2.25 0 5.625 0 0 
6.75 0 0 6.75 0 1.125 
4.5 3.375 0 5.625 3.375 0 
2.25 0 0 1.125 0 1.125 
1.125 0 0 5.625 7.875 0 
6.75 7.875 0 6.75 9 0 
6.75 9 1.125 9 7.875 1.125 
9 9 0 9 9 1.125 
2.25 9 1.125 4.5 9 0 
2.25 9 0 0 6.75 0 
0 6.75 1.125 0 7.875 1.125 
2.25 7.875 0 0 5.625 0 
0 4.5 0 0 4.5 1.125 
9 2.25 9 6.75 0 6.75 
9 3.375 9 9 3.375 7.875 
7.875 3.375 9 9 4.5 9 
7.875 4.5 9 9 5.625 9 
5.625 4.5 9 9 6.75 9 