<?xml version="1.0"?>
<VTKFile type="UnstructuredGrid" version="0.1" byte_order="LittleEndian" header_type="UInt32" compressor="vtkZLibDataCompressor">
  <UnstructuredGrid>
    <Piece NumberOfPoints="827" NumberOfCells="4470">
      <PointData>
        <DataArray type="UInt32" Name="geol_type" format="ascii" RangeMin="0" RangeMax="0">0 
0 0 0 0 0 0 0 0 
0 0 0 0 0 0 0 0 
0 0 0 0 0 0 0 0 
0 0 0 0 0 0 0 0 
0 0 0 0 0 0 0 0 
0 0 0 0 0 0 0 0 
0 0 0 0 0 0 0 0 
0 0 0 0 0 0 0 0 
0 0 0 0 0 0 0 0 
0 0 0 0 0 0 0 0 
0 0 0 0 0 0 0 0 
0 0 0 0 0 0 0 0 
0 0 0 0 0 0 0 0 
0 0 0 0 0 0 0 0 
0 0 0 0 0 0 0 0 
0 0 0 0 0 0 0 0 
0 0 0 0 0 0 0 0 
0 0 0 0 0 0 0 0 
0 0 0 0 0 0 0 0 
0 0 0 0 0 0 0 0 
0 0 0 0 0 0 0 0 
0 0 0 0 0 0 0 0 
0 0 0 0 0 0 0 0 
0 0 0 0 0 0 0 0 
0 0 0 0 0 0 0 0 
0 0 0 0 0 0 0 0 
0 0 0 0 0 0 0 0 
0 0 0 0 0 0 0 0 
0 0 0 0 0 0 0 0 
0 0 0 0 0 0 0 0 
0 0 0 0 0 0 0 0 
0 0 0 0 0 0 0 0 
0 0 0 0 0 0 0 0 
0 0 0 0 0 0 0 0 
0 0 0 0 0 0 0 0 
0 0 0 0 0 0 0 0 
0 0 0 0 0 0 0 0 
0 0 0 0 0 0 0 0 
0 0 0 0 0 0 0 0 
0 0 0 0 0 0 0 0 
0 0 0 0 0 0 0 0 
0 0 0 0 0 0 0 0 
0 0 0 0 0 0 0 0 
0 0 0 0 0 0 0 0 
0 0 0 0 0 0 0 0 
0 0 0 0 0 0 0 0 
0 0 0 0 0 0 0 0 
0 0 0 0 0 0 0 0 
0 0 0 0 0 0 0 0 
0 0 0 0 0 0 0 0 
0 0 0 0 0 0 0 0 
0 0 0 0 0 0 0 0 
0 0 0 0 0 0 0 0 
0 0 0 0 0 0 0 0 
0 0 0 0 0 0 0 0 
0 0 0 0 0 0 0 0 
0 0 0 0 0 0 0 0 
0 0 0 0 0 0 0 0 
0 0 0 0 0 0 0 0 
0 0 0 0 0 0 0 0 
0 0 0 0 0 0 0 0 
0 0 0 0 0 0 0 0 
0 0 0 0 0 0 0 0 
0 0 0 0 0 0 0 0 
0 0 0 0 0 0 0 0 
0 0 0 0 0 0 0 0 
0 0 0 0 0 0 0 0 
0 0 0 0 0 0 0 0 
0 0 0 0 0 0 0 0 
0 0 0 0 0 0 0 0 
0 0 0 0 0 0 0 0 
0 0 0 0 0 0 0 0 
0 0 0 0 0 0 0 0 
0 0 0 0 0 0 0 0 
0 0 0 0 0 0 0 0 
0 0 0 0 0 0 0 0 
0 0 0 0 0 0 0 0 
0 0 0 0 0 0 0 0 
0 0 0 0 0 0 0 0 
0 0 0 0 0 0 0 0 
0 0 0 0 0 0 0 0 
0 0 0 0 0 0 0 0 
0 0 0 0 0 0 0 0 
0 0 0 0 0 0 0 0 
0 0 0 0 0 0 0 0 
0 0 0 0 0 0 0 0 
0 0 0 0 0 0 0 0 
0 0 0 0 0 0 0 0 
0 0 0 0 0 0 0 0 
0 0 0 0 0 0 0 0 
0 0 0 0 0 0 0 0 
0 0 0 0 0 0 0 0 
0 0 0 0 0 0 0 0 
0 0 0 0 0 0 0 0 
0 0 0 0 0 0 0 0 
0 0 0 0 0 0 0 0 
0 0 0 0 0 0 0 0 
0 0 0 0 0 0 0 0 
0 0 0 0 0 0 0 0 
0 0 0 0 0 0 0 0 
0 0 0 0 0 0 0 0 
0 0 0 0 0 0 0 0 
0 0 0 0 0 0 0 0 
0 0 </DataArray>
        <DataArray type="Float64" Name="local_size" format="ascii" RangeMin="0.000000" RangeMax="0.000000">0 
0 0 0 0 0 0 0 0 
0 0 0 0 0 0 0 0 
0 0 0 0 0 0 0 0 
0 0 0 0 0 0 0 0 
0 0 0 0 0 0 0 0 
0 0 0 0 0 0 0 0 
0 0 0 0 0 0 0 0 
0 0 0 0 0 0 0 0 
0 0 0 0 0 0 0 0 
0 0 0 0 0 0 0 0 
0 0 0 0 0 0 0 0 
0 0 0 0 0 0 0 0 
0 0 0 0 0 0 0 0 
0 0 0 0 0 0 0 0 
0 0 0 0 0 0 0 0 
0 0 0 0 0 0 0 0 
0 0 0 0 0 0 0 0 
0 0 0 0 0 0 0 0 
0 0 0 0 0 0 0 0 
0 0 0 0 0 0 0 0 
0 0 0 0 0 0 0 0 
0 0 0 0 0 0 0 0 
0 0 0 0 0 0 0 0 
0 0 0 0 0 0 0 0 
0 0 0 0 0 0 0 0 
0 0 0 0 0 0 0 0 
0 0 0 0 0 0 0 0 
0 0 0 0 0 0 0 0 
0 0 0 0 0 0 0 0 
0 0 0 0 0 0 0 0 
0 0 0 0 0 0 0 0 
0 0 0 0 0 0 0 0 
0 0 0 0 0 0 0 0 
0 0 0 0 0 0 0 0 
0 0 0 0 0 0 0 0 
0 0 0 0 0 0 0 0 
0 0 0 0 0 0 0 0 
0 0 0 0 0 0 0 0 
0 0 0 0 0 0 0 0 
0 0 0 0 0 0 0 0 
0 0 0 0 0 0 0 0 
0 0 0 0 0 0 0 0 
0 0 0 0 0 0 0 0 
0 0 0 0 0 0 0 0 
0 0 0 0 0 0 0 0 
0 0 0 0 0 0 0 0 
0 0 0 0 0 0 0 0 
0 0 0 0 0 0 0 0 
0 0 0 0 0 0 0 0 
0 0 0 0 0 0 0 0 
0 0 0 0 0 0 0 0 
0 0 0 0 0 0 0 0 
0 0 0 0 0 0 0 0 
0 0 0 0 0 0 0 0 
0 0 0 0 0 0 0 0 
0 0 0 0 0 0 0 0 
0 0 0 0 0 0 0 0 
0 0 0 0 0 0 0 0 
0 0 0 0 0 0 0 0 
0 0 0 0 0 0 0 0 
0 0 0 0 0 0 0 0 
0 0 0 0 0 0 0 0 
0 0 0 0 0 0 0 0 
0 0 0 0 0 0 0 0 
0 0 0 0 0 0 0 0 
0 0 0 0 0 0 0 0 
0 0 0 0 0 0 0 0 
0 0 0 0 0 0 0 0 
0 0 0 0 0 0 0 0 
0 0 0 0 0 0 0 0 
0 0 0 0 0 0 0 0 
0 0 0 0 0 0 0 0 
0 0 0 0 0 0 0 0 
0 0 0 0 0 0 0 0 
0 0 0 0 0 0 0 0 
0 0 0 0 0 0 0 0 
0 0 0 0 0 0 0 0 
0 0 0 0 0 0 0 0 
0 0 0 0 0 0 0 0 
0 0 0 0 0 0 0 0 
0 0 0 0 0 0 0 0 
0 0 0 0 0 0 0 0 
0 0 0 0 0 0 0 0 
0 0 0 0 0 0 0 0 
0 0 0 0 0 0 0 0 
0 0 0 0 0 0 0 0 
0 0 0 0 0 0 0 0 
0 0 0 0 0 0 0 0 
0 0 0 0 0 0 0 0 
0 0 0 0 0 0 0 0 
0 0 0 0 0 0 0 0 
0 0 0 0 0 0 0 0 
0 0 0 0 0 0 0 0 
0 0 0 0 0 0 0 0 
0 0 0 0 0 0 0 0 
0 0 0 0 0 0 0 0 
0 0 0 0 0 0 0 0 
0 0 0 0 0 0 0 0 
0 0 0 0 0 0 0 0 
0 0 0 0 0 0 0 0 
0 0 0 0 0 0 0 0 
0 0 0 0 0 0 0 0 
0 0 0 0 0 0 0 0 
0 0 </DataArray>
      </PointData>
      <CellData>
        <DataArray type="UInt32" Name="region" format="ascii" RangeMin="1" RangeMax="1">1 
1 2 1 1 2 3 4 3 
4 3 1 3 3 2 1 1 
5 2 5 1 6 2 2 5 
2 5 5 7 2 7 5 6 
1 7 2 1 7 7 7 2 
2 7 5 5 5 2 8 6 
8 2 9 9 4 9 10 9 
3 3 3 10 11 9 3 3 
10 9 3 9 6 7 6 7 
6 8 7 5 3 12 11 5 
9 9 11 3 10 3 4 1 
7 1 11 4 9 3 1 2 
11 3 2 11 1 2 11 3 
1 2 2 2 5 1 1 5 
6 1 5 1 1 1 1 6 
1 7 6 2 2 1 1 1 
1 7 1 1 1 1 6 1 
5 1 2 1 1 1 1 1 
1 5 1 1 6 2 1 6 
1 1 1 7 1 1 1 1 
6 1 1 1 1 1 1 1 
1 1 1 1 2 1 1 1 
5 1 1 6 1 1 1 1 
1 11 3 4 3 11 4 9 
11 4 9 9 11 11 12 9 
12 11 9 11 12 11 9 4 
9 11 11 11 9 3 11 11 
9 11 9 11 3 11 3 11 
12 11 11 11 11 11 11 11 
12 12 3 11 3 11 12 9 
11 11 11 2 7 8 3 4 
10 3 4 2 7 3 4 4 
9 2 7 3 4 11 2 7 
11 4 2 1 3 3 10 10 
3 10 9 2 8 2 8 3 
10 5 2 8 3 12 10 2 
5 12 3 12 2 2 5 3 
12 2 3 10 9 12 12 2 
8 7 2 7 3 4 10 3 
2 3 2 10 2 9 12 2 
5 1 11 1 3 2 3 2 
3 2 2 10 3 2 7 3 
4 3 1 7 3 2 2 7 
3 4 3 2 5 11 3 1 
1 1 2 5 11 12 12 3 
11 3 11 2 11 2 1 2 
1 11 3 1 11 3 3 3 
12 12 2 5 2 2 2 8 
2 9 3 2 5 3 12 3 
12 2 1 2 2 3 3 3 
11 11 2 1 1 2 11 11 
11 3 11 3 1 2 11 3 
3 2 1 11 2 1 11 3 
3 11 1 1 1 1 2 9 
1 2 1 2 2 9 1 2 
3 2 2 3 2 3 3 2 
3 11 3 2 11 2 2 2 
2 3 3 2 3 3 2 2 
2 2 2 12 9 3 2 2 
3 8 3 9 4 3 2 3 
10 4 3 9 3 9 2 2 
3 2 2 8 3 2 3 3 
6 7 2 3 3 9 3 1 
9 2 3 3 3 3 8 2 
1 1 2 3 1 2 1 3 
2 2 2 9 3 2 2 6 
2 6 3 3 9 2 3 3 
2 2 8 2 3 2 2 3 
2 3 3 10 3 12 3 10 
3 12 3 3 12 12 3 12 
11 9 12 9 12 9 11 12 
11 3 12 3 12 3 11 9 
9 3 12 3 12 12 9 10 
9 12 3 3 3 12 12 12 
12 12 3 9 3 3 12 9 
3 12 9 11 12 11 12 12 
12 12 12 12 12 9 5 8 
8 5 1 5 6 5 6 6 
5 6 5 8 6 5 6 5 
1 2 5 2 2 5 1 1 
1 5 1 5 5 1 2 2 
5 5 5 8 2 5 2 8 
2 2 5 5 5 2 5 6 
5 5 8 8 6 5 5 6 
6 5 5 5 5 6 5 5 
5 5 5 6 6 5 6 6 
5 5 5 2 8 5 5 5 
1 2 2 5 5 2 5 5 
8 2 5 2 2 5 2 1 
5 5 5 5 5 5 2 5 
5 5 6 2 5 5 5 5 
5 5 7 7 7 8 7 8 
1 6 6 7 8 6 7 7 
2 2 2 2 7 6 7 7 
8 8 7 2 2 1 7 7 
1 6 7 2 2 1 7 6 
7 7 7 2 7 6 7 6 
2 7 7 2 2 2 7 7 
1 1 7 7 6 6 7 6 
6 7 2 2 2 2 2 2 
7 2 7 7 7 7 7 7 
7 7 7 7 7 7 7 7 
6 1 7 7 2 7 7 4 
3 4 9 11 9 9 10 4 
3 3 3 3 4 4 11 4 
11 3 3 3 4 9 4 3 
3 4 10 4 10 3 4 4 
3 4 4 4 4 3 4 4 
4 3 4 4 4 4 4 9 
4 4 4 4 4 9 4 4 
8 8 6 8 6 7 8 6 
5 2 2 8 2 5 5 5 
8 8 8 5 8 2 2 8 
2 7 8 2 8 8 8 7 
8 8 2 8 8 2 2 8 
8 7 8 7 8 2 6 8 
8 8 8 8 8 6 8 7 
8 6 8 8 8 8 8 8 
8 2 2 6 7 8 2 7 
8 5 8 8 8 8 8 6 
8 8 2 2 2 8 2 8 
8 2 8 8 8 3 12 12 
9 3 10 10 9 10 9 10 
10 9 10 10 9 3 4 10 
3 10 10 3 10 12 10 10 
9 3 3 10 3 10 10 10 
12 10 10 10 10 10 9 3 
10 10 10 3 10 9 10 4 
4 10 9 10 10 10 10 10 
10 10 10 10 10 10 11 12 
12 9 12 12 12 3 9 11 
11 11 9 3 11 11 11 11 
9 9 9 9 4 9 9 12 
12 9 4 9 9 12 9 9 
10 10 9 12 12 10 3 9 
10 10 9 4 10 4 10 9 
4 4 9 10 9 9 10 10 
4 9 4 4 4 4 4 9 
9 4 4 9 9 4 4 9 
10 9 9 9 4 9 10 9 
9 9 9 10 3 12 12 9 
9 9 9 9 3 3 3 9 
9 3 4 9 3 4 4 3 
9 9 3 9 9 3 3 9 
12 12 3 9 9 3 3 3 
3 3 9 3 11 9 9 3 
3 3 9 9 9 3 3 9 
9 9 3 9 3 9 3 9 
3 3 3 3 9 3 9 3 
3 3 9 9 9 9 9 3 
3 9 3 3 9 9 9 9 
9 7 6 1 6 6 6 1 
1 1 7 7 6 7 7 6 
6 7 7 6 8 6 6 7 
1 6 6 5 5 1 6 1 
1 5 5 5 7 7 6 6 
6 1 6 6 1 8 6 6 
6 7 7 6 7 6 8 8 
6 6 8 6 8 8 8 8 
6 1 6 6 6 5 5 6 
6 6 6 6 6 6 6 8 
8 6 6 5 5 6 6 6 
8 5 5 8 2 6 5 5 
5 8 8 8 8 6 6 6 
6 1 1 6 6 5 6 6 
1 6 1 6 6 7 7 7 
7 6 1 6 6 6 6 7 
2 2 6 2 7 6 6 6 
6 8 6 2 2 6 6 2 
6 2 6 5 6 6 1 6 
6 6 5 2 6 6 2 6 
8 6 6 1 6 6 6 5 
6 6 6 6 2 6 6 6 
2 6 6 6 6 6 6 2 
6 2 12 12 12 3 7 6 
7 7 7 7 7 7 1 7 
7 8 8 8 8 9 9 9 
9 9 3 9 3 9 9 9 
9 9 3 9 9 6 6 6 
6 6 6 6 2 2 7 7 
6 8 8 6 7 2 8 8 
6 6 6 6 2 6 9 9 
9 9 10 9 9 9 9 11 
3 3 3 9 9 4 9 9 
9 10 9 9 9 9 9 9 
6 6 8 8 8 8 8 6 
2 7 6 7 2 7 6 1 
6 6 2 5 6 5 6 6 
9 9 3 9 12 12 9 11 
3 9 10 9 10 9 9 5 
6 5 5 5 7 7 2 2 
2 2 6 2 11 9 9 9 
3 9 12 3 9 9 9 2 
5 2 7 7 7 7 12 9 
3 9 12 9 9 3 4 9 
9 4 9 2 7 8 9 6 
7 7 9 3 4 9 9 9 
3 3 9 9 2 2 2 5 
2 5 5 5 5 6 6 6 
6 5 6 8 2 8 5 5 
5 6 5 2 6 5 6 6 
5 6 7 7 2 7 7 7 
7 2 7 8 5 8 5 8 
2 8 8 8 8 8 6 8 
8 6 8 8 8 8 6 8 
8 6 8 10 9 4 3 10 
9 3 9 9 9 3 11 9 
12 12 10 3 9 12 3 3 
9 3 9 3 9 3 9 7 
6 6 7 6 7 6 6 6 
6 6 6 7 5 6 8 6 
6 6 6 6 6 6 7 6 
6 9 9 6 5 8 8 6 
3 2 2 4 9 9 9 1 
1 1 1 1 1 2 2 2 
2 1 1 2 2 2 1 2 
1 1 1 1 1 1 1 1 
1 1 1 1 1 1 1 1 
1 1 1 2 1 1 1 1 
1 1 1 1 1 2 2 2 
2 2 2 2 2 2 2 2 
2 2 2 2 2 2 2 2 
1 1 1 1 1 1 1 1 
1 1 2 1 2 2 2 2 
2 1 1 1 2 2 1 2 
1 2 1 2 2 1 2 1 
1 1 1 1 1 1 1 1 
1 1 1 1 1 1 1 1 
1 1 1 1 1 1 1 1 
1 1 1 1 1 1 1 1 
1 1 1 1 1 1 1 1 
1 1 1 1 1 1 1 1 
1 1 1 1 1 1 1 1 
1 1 1 1 1 1 1 1 
1 1 1 1 1 2 2 2 
2 2 2 2 2 2 2 2 
2 2 2 2 2 2 2 2 
2 2 2 2 2 2 2 2 
2 2 2 2 2 2 2 2 
2 2 2 2 2 2 2 2 
2 2 2 2 1 2 2 1 
2 2 2 1 2 2 1 2 
1 1 2 1 2 2 2 2 
1 1 2 1 2 1 2 2 
1 1 2 1 2 2 2 1 
1 1 2 1 2 2 1 2 
1 2 1 2 1 1 1 2 
1 1 2 2 1 2 1 1 
2 2 1 1 2 2 1 1 
2 2 2 1 1 2 1 1 
2 2 1 1 1 2 1 1 
1 1 1 2 2 2 2 2 
2 1 2 1 1 1 2 2 
1 2 2 2 2 2 2 2 
1 1 1 1 1 2 2 1 
1 2 2 2 1 1 1 1 
2 2 2 2 2 2 1 1 
1 1 1 2 1 2 2 2 
2 2 1 2 2 2 2 1 
1 1 2 1 1 1 2 2 
2 2 2 2 2 1 1 1 
1 1 1 2 1 1 1 1 
1 2 1 1 2 2 1 1 
1 1 1 2 1 2 2 1 
2 2 2 1 2 2 2 2 
2 1 2 1 1 2 1 2 
2 1 1 1 2 2 2 2 
1 1 1 2 2 2 1 1 
1 1 1 2 2 1 1 2 
1 2 2 2 2 1 2 1 
2 2 2 2 1 2 2 2 
1 1 2 1 1 1 1 2 
1 2 2 1 1 1 2 2 
2 2 1 2 1 2 2 2 
2 1 1 2 1 1 1 1 
2 1 1 1 2 2 1 1 
1 2 2 1 1 1 1 1 
2 2 2 1 2 2 1 1 
1 1 2 1 1 2 1 1 
2 2 2 2 2 2 2 2 
2 2 2 2 2 2 2 2 
2 2 2 2 2 2 2 2 
2 2 2 2 2 2 2 2 
2 2 2 2 2 2 2 2 
2 2 2 2 2 2 2 2 
2 2 2 2 2 2 2 2 
2 2 2 2 2 2 2 2 
2 2 2 2 2 2 2 1 
1 1 1 1 1 1 1 1 
1 1 1 1 1 1 1 1 
1 1 1 1 1 1 1 1 
1 1 1 1 1 1 1 1 
1 1 1 1 1 1 1 1 
1 1 1 1 1 1 1 1 
1 1 1 1 1 1 1 1 
1 1 1 1 1 1 1 1 
1 1 1 1 1 1 1 1 
1 1 1 1 1 1 1 1 
1 1 1 1 1 1 1 1 
1 1 1 1 1 1 1 1 
1 1 1 1 1 1 1 1 
1 1 1 1 1 1 1 1 
1 1 1 1 1 1 1 1 
1 1 1 1 1 1 1 1 
1 1 1 1 1 1 1 1 
1 1 1 1 1 1 1 1 
1 1 1 1 1 1 1 1 
1 1 1 1 1 1 1 1 
1 1 1 1 1 1 1 1 
1 1 1 1 1 1 1 1 
1 1 1 1 1 1 1 1 
1 1 1 1 1 1 1 1 
1 1 1 1 1 1 1 1 
1 1 1 1 1 1 1 1 
1 1 1 1 1 1 1 1 
1 1 1 1 1 1 1 1 
1 1 1 1 1 2 2 2 
2 2 2 2 2 2 2 2 
2 2 2 2 2 2 2 2 
2 2 2 2 2 2 2 2 
2 2 2 2 2 2 2 2 
2 2 2 2 2 2 2 2 
2 2 2 2 2 2 2 2 
2 2 2 2 2 2 2 2 
2 2 2 2 2 2 1 1 
1 1 1 1 1 1 1 1 
1 1 1 1 1 1 1 1 
1 1 1 1 1 1 1 1 
1 1 1 1 1 1 1 1 
1 1 1 1 1 1 1 1 
1 1 1 1 1 1 1 1 
1 1 1 1 1 1 1 1 
1 1 1 1 1 1 1 1 
1 1 1 1 1 1 1 1 
1 1 1 1 1 1 1 1 
1 1 1 1 1 1 1 1 
1 1 1 1 1 1 1 1 
1 1 1 1 1 1 1 1 
1 1 1 1 1 1 1 1 
1 1 1 1 1 1 2 2 
2 2 2 2 2 2 2 2 
2 2 2 2 2 2 2 2 
2 2 2 2 2 2 2 2 
2 2 2 2 2 2 2 2 
2 2 2 2 2 2 2 2 
2 2 2 2 2 2 2 2 
2 2 2 2 2 2 2 2 
2 2 2 2 2 2 2 2 
2 2 2 2 2 2 2 2 
2 2 2 2 2 2 2 2 
2 2 2 2 2 2 2 2 
2 2 2 2 2 2 2 2 
2 2 2 2 2 2 2 2 
2 2 2 2 2 2 2 2 
2 2 2 2 2 2 2 2 
2 2 2 2 2 2 2 2 
2 2 2 2 2 2 2 2 
2 2 2 2 2 2 2 2 
2 2 2 2 2 2 2 2 
2 2 2 2 2 2 2 2 
2 2 2 2 2 2 2 2 
2 2 2 2 2 2 2 2 
2 2 2 2 2 2 2 2 
2 2 2 2 2 2 2 2 
2 2 2 2 2 2 2 2 
2 2 2 2 2 2 2 2 
2 2 2 2 2 2 2 2 
2 2 2 2 2 2 2 2 
2 2 2 2 2 2 2 2 
2 2 2 2 2 2 2 2 
2 2 2 2 2 2 2 2 
2 2 2 2 2 2 2 2 
2 2 2 2 2 2 2 2 
2 2 2 2 2 2 2 2 
2 2 2 2 2 2 2 2 
2 2 2 2 2 2 2 2 
2 2 2 2 2 2 2 2 
2 2 2 2 2 2 2 1 
1 1 1 1 1 1 1 1 
1 1 1 1 1 1 1 1 
1 1 1 1 1 1 1 1 
1 1 1 1 1 1 1 1 
1 1 1 1 1 1 1 1 
1 1 1 1 1 1 1 1 
1 1 1 1 1 1 1 1 
1 1 1 1 1 1 1 1 
1 1 1 1 1 1 1 1 
1 1 1 1 1 1 1 1 
1 1 1 1 1 1 1 1 
1 1 1 1 1 1 1 1 
1 1 1 1 1 1 1 1 
1 1 1 1 1 1 1 1 
1 1 1 1 1 1 1 1 
1 1 1 1 1 1 1 1 
1 1 1 1 1 1 1 1 
1 1 1 1 1 1 1 1 
1 1 1 1 1 1 1 1 
1 1 1 1 1 1 1 1 
1 1 1 1 1 1 1 1 
1 1 1 1 1 1 1 1 
1 1 1 1 1 1 1 1 
1 1 1 1 1 1 1 1 
1 1 1 1 1 1 1 1 
1 1 1 1 1 1 1 1 
1 1 1 1 1 1 1 1 
1 1 1 1 1 1 1 1 
1 1 1 1 1 1 1 1 
1 1 1 2 2 2 2 2 
2 2 1 1 1 1 1 1 
1 1 1 1 1 1 1 1 
1 1 1 1 1 1 1 2 
2 2 2 2 2 2 2 2 
2 2 2 2 2 2 2 2 
2 2 1 1 1 1 1 1 
1 1 1 1 1 1 1 1 
1 1 1 1 1 1 1 1 
1 1 1 1 1 1 1 1 
1 2 2 2 2 2 2 2 
2 2 2 2 2 2 2 2 
2 2 2 2 2 2 2 2 
2 2 2 2 2 2 2 2 
2 2 2 2 2 2 2 2 
2 2 2 2 2 2 1 1 
1 1 1 1 1 1 1 1 
1 1 1 1 1 1 1 1 
1 1 1 1 1 1 1 1 
1 1 1 1 1 1 1 1 
1 1 1 1 1 1 1 1 
2 2 2 2 2 2 2 2 
2 2 2 2 2 2 2 2 
2 2 2 2 2 2 2 2 
2 2 2 1 1 1 1 1 
1 1 1 1 1 1 1 1 
1 1 1 1 1 1 1 1 
1 1 1 1 1 1 1 1 
1 1 1 2 2 2 2 2 
2 2 2 2 2 2 2 2 
2 2 2 2 2 2 2 2 
2 2 2 2 2 1 1 1 
1 1 1 1 1 1 1 1 
1 1 1 1 1 1 1 1 
1 1 1 1 1 1 1 2 
2 2 2 2 2 2 2 2 
2 2 2 2 2 2 2 2 
2 2 2 2 2 2 2 2 
2 2 1 1 1 1 1 1 
1 1 1 1 2 2 2 2 
2 2 2 2 2 2 2 2 
1 1 1 1 1 1 1 1 
1 2 2 2 2 2 2 2 
2 2 2 2 2 2 2 2 
2 2 2 2 2 2 2 2 
2 2 2 2 2 2 2 2 
2 2 2 2 2 2 2 2 
2 2 2 2 2 2 2 2 
2 2 2 1 1 1 1 1 
1 1 1 1 1 1 1 1 
1 1 1 1 1 1 1 1 
1 1 1 1 1 1 1 1 
1 1 1 1 1 1 1 1 
1 1 1 1 1 1 1 1 
1 1 1 1 1 1 1 1 
1 1 1 1 1 1 1 1 
1 1 1 1 1 1 1 1 
1 1 1 1 1 1 1 1 
1 1 1 1 1 1 1 1 
1 1 1 1 1 1 1 1 
1 1 1 1 1 1 1 1 
1 1 1 1 1 1 1 1 
1 1 1 1 1 1 1 1 
1 1 1 1 1 1 1 1 
1 1 1 1 1 1 1 1 
1 1 1 1 1 1 1 1 
1 1 1 1 1 1 1 1 
1 1 1 1 1 1 1 1 
1 1 1 1 1 1 1 1 
1 1 1 1 1 1 1 1 
1 1 1 1 1 1 1 1 
2 2 2 2 2 2 2 2 
1 1 1 1 1 1 1 1 
1 1 1 1 1 1 1 1 
1 1 1 1 1 1 1 1 
1 1 1 1 1 1 1 1 
1 1 1 1 1 1 1 1 
1 1 1 1 1 1 1 1 
1 1 1 1 1 1 1 1 
1 1 1 1 1 1 1 1 
1 1 1 1 1 1 1 1 
1 1 1 1 1 1 1 1 
1 1 1 1 1 1 1 1 
1 1 1 1 2 2 2 2 
2 2 2 2 2 2 2 2 
2 2 2 2 2 2 2 2 
2 2 2 2 2 2 2 2 
2 2 2 2 2 2 2 2 
2 2 2 2 2 2 2 2 
2 2 2 2 2 2 2 2 
2 2 2 2 2 2 2 2 
2 2 2 2 2 2 2 2 
2 2 2 2 2 2 2 2 
2 2 2 2 2 2 2 2 
2 2 2 2 2 2 2 2 
2 2 2 2 2 2 2 2 
2 2 2 2 2 2 2 2 
2 2 2 2 2 2 2 2 
2 2 2 2 2 2 2 2 
2 2 2 2 2 2 2 2 
2 2 2 2 2 2 2 2 
2 2 2 2 2 2 2 2 
2 2 2 2 2 2 2 2 
2 2 2 2 2 2 2 2 
2 2 2 2 2 2 2 2 
2 2 2 2 2 2 2 2 
2 2 2 2 2 2 2 2 
2 2 2 2 2 2 2 2 
2 1 1 1 1 1 1 1 
1 1 1 1 1 1 1 1 
1 1 1 1 1 1 1 1 
1 1 1 1 1 1 1 1 
1 1 1 1 1 1 1 1 
1 1 1 1 1 1 1 1 
1 1 1 1 1 1 1 1 
1 1 1 1 1 1 1 1 
1 1 1 1 1 1 1 1 
1 1 1 1 1 1 1 1 
1 1 1 1 1 1 1 1 
1 1 1 1 1 1 1 1 
1 1 1 1 1 1 1 1 
1 1 1 1 1 1 1 1 
1 1 1 1 1 1 1 1 
1 1 1 1 1 1 1 1 
1 1 1 1 1 1 1 1 
1 1 1 1 1 1 1 1 
1 1 1 1 1 1 1 1 
1 1 1 1 1 1 1 1 
1 1 1 1 1 1 1 1 
1 1 1 1 1 1 1 1 
1 1 1 1 1 1 1 1 
1 1 1 1 1 1 1 1 
1 1 1 1 1 1 1 1 
1 1 1 1 1 1 1 1 
1 1 1 1 1 1 1 1 
1 1 1 1 1 2 2 2 
2 2 2 2 2 2 2 2 
2 2 2 2 2 2 2 2 
2 2 2 2 2 2 2 2 
2 2 2 2 2 2 2 2 
2 2 2 1 1 1 1 1 
1 1 1 1 1 1 1 1 
1 1 1 1 1 1 1 1 
1 1 1 1 1 2 1 1 
1 1 1 1 1 1 1 1 
1 1 1 1 1 1 1 1 
1 1 1 2 2 2 2 2 
2 2 2 2 1 1 1 1 
1 1 1 1 1 1 1 1 
1 2 2 2 2 2 2 2 
2 2 2 2 2 2 2 2 
2 2 2 2 1 </DataArray>
      </CellData>
      <Points>
        <DataArray type="Float64" Name="Points" format="ascii" RangeMin="0.000000" RangeMax="9.000000" NumberOfComponents="3">9 0 0 9 9 3.502532958984375 
9 9 9 9 0 9 
9 9 6.251266479492188 8.999999999999996 0.8359832604650297 6.723450909092142 
8.999999999999996 6.293161288260501 5.11217895660125 9 0 3.502532958984375 
9 1.799999999999999 3.502532958984375 8.177845845051273 4.050000000000001 0 
9 9 0 9 9 1.751266479492188 
0 0 3.502532958984375 0.9000000000000012 9 3.502532958984375 
0 9 3.502532958984375 0 9 0 
9 8.1 3.502532958984375 9 7.199999999999999 3.502532958984375 
6.300000000000001 9 3.502532958984375 9 6.752283610666082 2.625933399103364 
9 6.299999999999999 3.502532958984375 9 6.325806601975986 1.713624568765537 
9 5.399999999999999 3.502532958984375 9 2.699999999999998 3.502532958984375 
9 3.599999999999999 3.502532958984375 9 4.499999999999998 3.502532958984375 
8.177845845051271 4.950000000000001 3.502532958984375 8.999999999999996 4.949999999999996 4.324687113933102 
8.999999999999996 3.599573699913536 5.137585661664579 9 3.158621025056943 2.651934647618114 
9 2.248039948293297 2.665595466014997 8.999999999999996 2.68019223803895 5.148217820251414 
8.999999999999996 2.217756231877171 4.359653137142738 8.999999999999996 1.665282257658973 5.274179327423395 
8.999999999999996 5.399999999999995 5.146841268881834 8.999999999999996 4.049999999999999 4.324687113933102 
8.999999999999996 5.849999999999998 4.324687113933104 8.999999999999996 4.01249625414772 5.901383452613061 
1.800000000000002 9 3.502532958984375 7.199999999999999 9 0 
9 9 2.626899719238281 9 8.189157955191284 2.235077043665196 
8.1 9 3.502532958984375 7.611645216840162 9 2.693983819566046 
8.181229301155238 9 2.220458696966295 9 7.32210713867422 1.749390562731385 
3.599999999999999 9 0 0 9 9 
7.738009174972064 9 4.321149101795649 9 9 4.418777465820312 
5.400000000000001 9 3.502532958984375 7.200000000000001 9 3.502532958984375 
7.735145132194498 8.192335273734621 3.502532958984375 8.999999999999996 8.164000755257213 5.778011509193902 
9 9 5.33502197265625 8.999999999999996 7.334037282752933 7.230596511087146 
9 9 7.167510986328125 2.18707295128528e-18 8.100000000000001 3.502532958984375 
2.700000000000002 9 3.502532958984375 3.600000000000001 9 3.502532958984375 
4.500000000000001 9 3.502532958984375 9 8.100000000000001 9 
4.950000000000001 8.177845845051271 3.502532958984375 9 9 8.083755493164062 
5.400000000000004 7.355691690102542 3.502532958984375 2.709248697054655 7.391727441334007 3.502532958984375 
1.385871337505962 8.215609982538957 3.502532958984375 1.730150806845259 7.324027116328562 3.502532958984375 
5.850000000000001 9 4.324687113933102 3.6 7.355691690102548 3.502532958984375 
4.965594110718341 6.507460970834256 3.502532958984375 6.319805761079415 9 5.148221435302199 
0 0 4.418777465820312 9 1.800000000000001 9 
0 0 9 1.800000000000001 0 3.502532958984375 
9 0 7.167510986328125 9 0 6.251266479492188 
7.199999999999999 0 9 8.219675828624311 0 4.913829097393842 
9 0 5.33502197265625 9 0.8999999999999986 3.502532958984375 
8.099999999999998 0 3.502532958984375 8.999999999999996 1.261990521009734 4.321148250875595 
7.199999999999998 0 3.502532958984375 8.999999999999996 2.327532132102036 5.940675240585001 
5.4 1.644308309897455 3.502532958984375 5.81164735236738 0 5.859251804340831 
0 0 0 0.9000000000000002 0 3.502532958984375 
9.817987233071469e-18 0.9000000000000002 3.502532958984375 0 0 1.751266479492188 
3.15009950265889 0 2.629941330339408 2.700000000000001 0 3.502532958984375 
1.392479195400391 0 2.714420866840616 3.600000000000001 0 3.502532958984375 
4.5 0 3.502532958984375 6.299999999999999 0 3.502532958984375 
5.399999999999999 0 3.502532958984375 4.950000000000001 0.8221541549487279 3.502532958984375 
9 0 2.626899719238281 9 0 1.751266479492187 
9 0.8999999999999995 0 0.8136465509939548 9 5.793144226074219 
0 9 4.418777465820312 0 9 7.167510986328125 
3.128892672869206e-16 2.219947661410139 4.35828661324544 8.886346537770051e-18 2.700000000000001 3.502532958984375 
1.387778780781446e-17 3.600000000000001 3.502532958984375 0 0 8.083755493164062 
0 0 6.251266479492188 0.9000000000000004 9 9 
6.085114273362506e-18 5.400000000000001 3.502532958984375 0 5.400000000000001 9 
0 0 7.167510986328125 0.8359832604650297 0 6.723450909092142 
1.600233341274599 0 6.287558707578944 2.336159267275482 0 5.933956202572475 
5.823950847330327e-17 7.737997889647492 4.321158287783087 7.685469237304378e-17 7.334622209084504 5.274251638139043 
1.387778780781446e-17 1.8 3.502532958984375 0 0 2.626899719238281 
0.8196276711094974 0 2.234598634425147 1.387778780781446e-17 6.300000000000002 3.502532958984375 
0.8221541549487279 5.850000000000003 3.502532958984375 0.8186941576853588 9 2.220492146699293 
0 9 1.751266479492187 0 9 2.626899719238281 
1.387778780781446e-17 7.200000000000001 3.502532958984375 0.8481912099242113 6.770042546765302 3.502532958984375 
0 4.500000000000002 3.502532958984375 0.9 0 0 
0 8.100000000000001 0 9.439780055951931e-15 7.614860419315227 2.704270512688835 
0.8081405131799846 7.734720626411981 3.502532958984375 8.370492598850587e-15 6.752290032538334 2.625939155495052 
6.752815430379814 9 0.8292424785167327 9 9 0.8756332397460938 
8.1 9 0 8.188852590377454 9 1.266146654647823 
7.618270583633556 9 0.790408972751127 7.734393058871635 8.20412665188975 0 
9 4.499999999999998 0 9 7.199999999999999 0 
9 7.616889470969293 0.7979354629603463 8.196413367430877 7.619416926333484 0 
9 3.597804286391479 1.715925144769908 9 3.599999999999999 0 
9 2.248700946382007 0.8819782261599798 9 6.299999999999999 0 
9 5.841226347143078 0.8506013849838432 9 5.399999999999999 0 
8.177845845051273 4.949999999999998 0 9 2.699999999999998 0 
7.199999999999999 0 0 6.299999999999999 9 0 
4.949999999999996 9 0.822154154948727 9 1.8 0 
9 0.8187748769847776 1.282082442278652 8.189302099854938 0 1.265902696797298 
5.399999999999999 9 0 0.8221541549487279 4.950000000000001 0 
0 6.300000000000002 0 0 5.400000000000001 0 
1.381942042263111 9 0.7904224948159282 0 9 0.8756332397460936 
4.499999999999998 9 0 1.8 0 0 
0 1.800000000000001 0 3.15 0 0.8221541549487288 
6.300000000000002 0 0 6.751728210625917 0 0.8369364746260803 
7.618192484488804 0 0.7903658745587183 8.1 0 0 
9 0 0.8756332397460936 8.196217419583279 1.379945195506388 0 
1.394804841618308 0 0.8209827069905771 0.8262675200081002 0 1.29764058256637 
0 0 0.8756332397460938 1.005540670973232e-15 0.8111472735615113 1.266146563567167 
0 0.9 0 0 4.500000000000002 0 
0 3.600000000000001 0 0 2.700000000000001 0 
6.136417354026386e-15 4.950111268335313 0.8725601690241014 2.699999999999998 9 0 
1.693166479530808 9 1.71262181566817 0 7.2 0 
0.8999999999999995 9 0 1.8 9 0 
2.247687381757848 9 0.8292867605041518 1.014690003487421e-14 8.185278364149353 1.278288443772258 
5.03087841406891e-15 4.058297617382092 0.8429107327589076 7.306735077048973 0 1.71207169114507 
4.950035806856173 0 0.8725615042826238 6.322241157368904 0 1.710572699542961 
3.150000000000002 0.8221541549487297 0 2.678209061813275 9 1.697750567599654 
3.149999999999997 9 0.822154154948727 5.849999999999998 9 0.8221541549487288 
8.177845845051273 3.149999999999999 0 9 3.140226626924873 0.8504419682654003 
9 4.057308668212663 0.8506095167839316 9 4.498399114513601 1.800010517283264 
6.528784969301348 5.841829740494001 0 7.390671138305633 6.307573544257441 0 
6.300000000000001 1.644308309897456 3.502532958984375 6.707432314425258 6.626319373669748 0 
1.644308309897458 5.400000000000004 3.502532958984375 3.28861661979492 4.499999999999991 3.502532958984375 
6.299999999999999 0 9 4.499999999999998 0 9 
0.9000000000000004 0 9 5.399999999999999 0 9 
5.849999999999998 0 8.177845845051271 9 2.700000000000001 9 
0 6.300000000000002 9 9 3.600000000000001 9 
8.999999999999996 4.500000000000002 7.355691690102546 3.599999999999999 9 9 
2.249999999999998 0 8.177845845051273 2.699999999999998 0 9 
1.800000000000001 0 9 1.262682859208278 0 8.198699456396938 
0 0.9 9 3.599999999999999 0 9 
4.949999999999996 0 8.177845845051273 4.949999999999998 0.8221541549487279 9 
0 1.800000000000001 9 0 2.700000000000001 9 
0 4.500000000000002 9 0 3.600000000000001 9 
2.699687439299589e-16 3.15 8.177845845051271 9 6.300000000000002 9 
8.999999999999996 6.780107197571405 8.144145948880645 9 7.2 9 
8.1 9 9 7.199999999999999 9 9 
9 4.500000000000002 9 9 5.400000000000001 9 
8.999999999999996 4.050000000000002 8.177845845051273 8.999999999999996 5.850000000000001 8.177845845051271 
6.299999999999999 9 9 4.499999999999998 9 9 
5.399999999999999 9 9 0 7.2 9 
2.699999999999998 9 9 1.800000000000001 9 9 
0 8.100000000000001 9 1.662994070347827 9 7.251951101759925 
1.261175279789846 9 8.183378849840555 2.466462464846184 5.850000000000007 3.502532958984375 
5.849999999999998 9 8.177845845051271 4.949999999999996 9 8.177845845051273 
4.949680507752596 9 6.63837120676034 3.599999999999998 9 7.355691690102542 
1.869014381053562e-16 4.949999999999999 8.177845845051273 1.661346116492055e-16 5.399999999999999 7.355691690102541 
2.492019174738081e-16 3.600000000000003 7.355691690102541 2.284350910176574e-16 4.050000000000002 8.177845845051273 
3.571351759997481e-16 1.261175315389243 8.183378891217448 3.129527490613384e-16 2.218572063720798 8.147156677240091 
8.999999999999996 5.40039312626325 7.364611788135246 8.151769405700305 6.770061453867674 9 
4.049999999999999 9 8.177845845051273 8.999999999999996 4.949999999999999 8.177845845051273 
8.999999999999996 2.706989272767377 7.390115107262245 8.999999999999996 3.15 8.177845845051271 
3.599999999999998 0 7.355691690102542 3.149999999999997 0 8.177845845051273 
8.999999999999996 2.377621447130771 6.705940348781539 7.619416926333484 0.8035866325691288 9 
8.999999999999996 2.249999999999998 8.177845845051273 3.149418807812761 0 6.60017202119052 
5.841829740494001 2.471215030698652 9 6.626319373669745 2.292567685574747 9 
3.169240769925523 6.524412878993601 3.502532958984375 4.090592114588162 9 6.596074696537302 
3.169236758142278 6.524412909492083 9 8.999999999999996 5.838631019705881 6.639513393038047 
6.667901369707694 9 5.934276435262946 2.359530656001406 9 6.713599267082081 
2.689101743696412 9 7.386848209743892 3.149023165904749 9 2.621948174295266 
3.150000000000002 8.177845845051275 3.502532958984375 7.737601458953271 0 8.198232489830723 
9 0.9 9 8.1 0 9 
9 0 8.083755493164062 8.999999999999996 0.7990566280348386 7.59448786599711 
8.999999999999996 0.8136465509939548 5.793144226074219 8.163741631545861 0 6.723323157728117 
9 0 4.418777465820312 0 9 6.251266479492188 
0 9 5.33502197265625 0.7806888691991265 9 4.914105718368745 
3.603293115959499e-17 8.219196103166968 4.914116201841944 3.793088926112475e-16 0.7806891661818174 4.914105855785795 
0.7808024117998897 0 4.914115427192536 0 0 5.33502197265625 
2.292614782422479 2.373815886019945 0 2.391136688362659 6.694825646499693 0 
3.150000000000004 2.466462464846191 0 5.6034873781668 3.397272255629511 0 
4.934860096398886 4.027435447737417 0 6.749999999999998 9 8.177845845051273 
5.832316353102067 6.525340723528727 9 4.499999999999998 3.288616619794906 9 
2.492553407191698 4.035184491647881 9 4.937893796247414 4.984547009515971 9 
3.064543316186292e-16 2.359387409551024 6.713621657010831 4.5 0 5.146841268881833 
0.8221541549487279 4.950000000000001 9 2.46646246484619 5.850000000000007 0 
1.01516122171462e-14 8.189079576683849 2.233965154845459 2.248112216360795 9 2.620702741153845 
2.250000000000003 8.177845845051271 3.502532958984375 0.8082099007164762 7.734693941865935 0 
9 1.694068875762207 1.790056210709047 9 1.381809378200034 2.712119566812706 
9 1.388272215592432 0.8085468800678299 8.192335273734621 1.264854867805503 3.502532958984375 
7.614367554786917 0.7840773181430389 3.502532958984375 6.753215943037485 0 2.620593737449624 
4.46204095058634e-15 3.599429099257462 1.702064968980743 0.8221541549487297 3.150000000000002 0 
2.785727494971588e-15 2.247184353313637 0.8292420715973154 1.644308309897458 3.600000000000005 0 
3.149999999999997 2.466462464846184 9 1.477439511164972e-16 5.798510444395207 5.900338655297849 
1.873159616293102e-16 4.941017617151413 5.862831030988056 6.60700701579113 0 5.831508935829884 
8.199618461226668 0 7.594985479837401 8.999999999999996 1.262695385536164 8.198678401041034 
8.204126651889748 1.265606941128365 9 8.999999999999996 4.905133804331903 5.902638104991828 
8.999999999999996 4.986405972010397 6.59766266851749 7.355691690102542 5.4 9 
6.507456982194213 4.966398565568239 9 8.999999999999996 3.149999999999997 4.324687113933102 
9 5.860570121008122 2.652182532854836 8.177845845051271 6.750000000000002 3.502532958984375 
9 7.614698550535265 2.704340361733125 6.321073696230174 9 1.697699675927016 
9 8.1 0 9 8.189393797725302 1.268569596562759 
6.307671312081789 7.391003778863753 3.502532958984375 6.750000000000002 8.177845845051273 0 
7.241468532884815e-15 5.841531453268649 0.8505720120260953 6.699775823834638e-15 5.404560004238222 1.799819127284836 
0.8221541549487297 4.950000000000001 3.502532958984375 5.576604929617121e-15 4.498523048312412 1.800146163089394 
3.288616619794904 4.500000000000002 0 5.400000000000002 9 5.146841268881834 
4.073937215115137 4.896049627957062 9 4.049999999999999 9 4.324687113933102 
3.599675952197703 9 5.137698219146628 3.16427015443869 9 5.860128101335576 
8.999999999999996 1.600249006510131 6.287582334777834 8.999999999999996 0.7807940111769565 4.914112022550661 
7.273947446557143 1.674288754741407 3.502532958984375 8.177845845051273 3.150000000000002 3.502532958984375 
8.177845845051273 4.050000000000001 3.502532958984375 8.999999999999996 4.499999999999998 5.146841268881829 
8.177845845051275 5.850000000000001 3.502532958984375 7.355691690102546 5.400000000000004 3.502532958984375 
4.973643379934225 4.949136918187648 3.502532958984375 5.711383380205078 4.499999999999993 3.502532958984375 
8.999999999999996 5.815440049583025 5.934878130029515 9 4.949999999999996 2.680378804035648 
9 4.042523827180387 2.659580853102861 9 2.677821826888309 1.791937162509726 
7.391003778863752 2.692328687918213 3.502532958984375 6.528787866445139 3.158203951309305 3.502532958984375 
7.325711245258594 7.273947446557147 3.502532958984375 5.850000000000003 8.177845845051273 3.502532958984375 
4.950147492394088 9 2.622759330763099 5.399999999999997 7.355691690102542 0 
4.967549139333093 6.507400635169903 0 8.999999999999996 7.276899676491421 5.187029494568771 
8.999999999999996 6.749999999999998 4.324687113933102 8.999999999999996 8.199567551492635 4.906619158874051 
8.219205930530917 9 4.914112126427263 8.215922681856966 7.614367554786917 3.502532958984375 
6.783702206183331 0 4.35670402016348 7.403014916110735 0 6.259445269787509 
7.738690122314669 0 4.320029168768409 8.186353449006043 0 5.793144226074219 
4.500232569573358 9 1.6896170065001 4.049848090700435 9 2.622670575932171 
4.049999999999999 9 0.822154154948727 4.050000000000001 8.177845845051273 0 
5.850758906397619 9 2.622161644945423 4.949999999999998 8.177845845051273 0 
5.85 8.177845845051271 0 4.949999999999999 0 2.680378804035648 